;;
;; Generated by CHARMM-GUI FF-Converter
;;
;; Correspondance:
;; jul316@lehigh.edu or wonpil@lehigh.edu
;;
;; GROMACS topology file for PROA
;;


[ moleculetype ]
; name	nrexcl
PROA	     3

[ atoms ]
1      NH1      17     ASN      N      1      -0.470000  14.0070   
2      H        17     ASN      HN     2      0.310000   1.0080    
3      CT1      17     ASN      CA     3      0.070000   12.0110   
4      HB1      17     ASN      HA     4      0.090000   1.0080    
5      CC321    17     ASN      CB     5      -0.180000  12.0110   
6      HCA2     17     ASN      HB1    6      0.090000   1.0080    
7      HCA2     17     ASN      HB2    7      0.090000   1.0080    
8      CC2O1    17     ASN      CG     8      0.510000   12.0110   
9      OC2D1    17     ASN      OD1    9      -0.510000  15.9994   
10     NC2D1    17     ASN      ND2    10     -0.470000  14.0070   
11     HCP1     17     ASN      HD22   11     0.310000   1.0080    
12     C        17     ASN      C      12     0.510000   12.0110   
13     O        17     ASN      O      13     -0.510000  15.9994   
14     CC3162   1      BGLCNA   C1     14     0.270000   12.0110   
15     HCA1     1      BGLCNA   H1     15     0.090000   1.0080    
16     CC3163   1      BGLCNA   C5     16     0.110000   12.0110   
17     HCA1     1      BGLCNA   H5     17     0.090000   1.0080    
18     OC3C61   1      BGLCNA   O5     18     -0.400000  15.9994   
19     CC3161   1      BGLCNA   C2     19     0.070000   12.0110   
20     HCA1     1      BGLCNA   H2     20     0.090000   1.0080    
21     NC2D1    1      BGLCNA   N      21     -0.470000  14.0070   
22     HCP1     1      BGLCNA   HN     22     0.310000   1.0080    
23     CC2O1    1      BGLCNA   C      23     0.510000   12.0110   
24     OC2D1    1      BGLCNA   O      24     -0.510000  15.9994   
25     CC331    1      BGLCNA   CT     25     -0.270000  12.0110   
26     HCA3     1      BGLCNA   HT1    26     0.090000   1.0080    
27     HCA3     1      BGLCNA   HT2    27     0.090000   1.0080    
28     HCA3     1      BGLCNA   HT3    28     0.090000   1.0080    
29     CC3161   1      BGLCNA   C3     29     0.140000   12.0110   
30     HCA1     1      BGLCNA   H3     30     0.090000   1.0080    
31     OC311    1      BGLCNA   O3     31     -0.650000  15.9994   
32     HCP1     1      BGLCNA   HO3    32     0.420000   1.0080    
33     CC3161   1      BGLCNA   C4     33     0.090000   12.0110   
34     HCA1     1      BGLCNA   H4     34     0.090000   1.0080    
35     OC301    1      BGLCNA   O4     35     -0.360000  15.9994   
36     CC321    1      BGLCNA   C6     36     0.000000   12.0110   
37     HCA2     1      BGLCNA   H61    37     0.090000   1.0080    
38     HCA2     1      BGLCNA   H62    38     0.090000   1.0080    
39     OC301    1      BGLCNA   O6     39     -0.360000  15.9994   
40     CC3162   2      AFUC     C1     40     0.290000   12.0110   
41     HCA1     2      AFUC     H1     41     0.090000   1.0080    
42     CC3163   2      AFUC     C5     42     0.110000   12.0110   
43     HCA1     2      AFUC     H5     43     0.090000   1.0080    
44     OC3C61   2      AFUC     O5     44     -0.400000  15.9994   
45     CC3161   2      AFUC     C2     45     0.140000   12.0110   
46     HCA1     2      AFUC     H2     46     0.090000   1.0080    
47     OC311    2      AFUC     O2     47     -0.650000  15.9994   
48     HCP1     2      AFUC     HO2    48     0.420000   1.0080    
49     CC3161   2      AFUC     C3     49     0.140000   12.0110   
50     HCA1     2      AFUC     H3     50     0.090000   1.0080    
51     OC311    2      AFUC     O3     51     -0.650000  15.9994   
52     HCP1     2      AFUC     HO3    52     0.420000   1.0080    
53     CC3161   2      AFUC     C4     53     0.140000   12.0110   
54     HCA1     2      AFUC     H4     54     0.090000   1.0080    
55     OC311    2      AFUC     O4     55     -0.650000  15.9994   
56     HCP1     2      AFUC     HO4    56     0.420000   1.0080    
57     CC331    2      AFUC     C6     57     -0.270000  12.0110   
58     HCA3     2      AFUC     H61    58     0.090000   1.0080    
59     HCA3     2      AFUC     H62    59     0.090000   1.0080    
60     HCA3     2      AFUC     H63    60     0.090000   1.0080    
61     CC3162   3      BGLCNA   C1     61     0.290000   12.0110   
62     HCA1     3      BGLCNA   H1     62     0.090000   1.0080    
63     CC3163   3      BGLCNA   C5     63     0.110000   12.0110   
64     HCA1     3      BGLCNA   H5     64     0.090000   1.0080    
65     OC3C61   3      BGLCNA   O5     65     -0.400000  15.9994   
66     CC3161   3      BGLCNA   C2     66     0.070000   12.0110   
67     HCA1     3      BGLCNA   H2     67     0.090000   1.0080    
68     NC2D1    3      BGLCNA   N      68     -0.470000  14.0070   
69     HCP1     3      BGLCNA   HN     69     0.310000   1.0080    
70     CC2O1    3      BGLCNA   C      70     0.510000   12.0110   
71     OC2D1    3      BGLCNA   O      71     -0.510000  15.9994   
72     CC331    3      BGLCNA   CT     72     -0.270000  12.0110   
73     HCA3     3      BGLCNA   HT1    73     0.090000   1.0080    
74     HCA3     3      BGLCNA   HT2    74     0.090000   1.0080    
75     HCA3     3      BGLCNA   HT3    75     0.090000   1.0080    
76     CC3161   3      BGLCNA   C3     76     0.140000   12.0110   
77     HCA1     3      BGLCNA   H3     77     0.090000   1.0080    
78     OC311    3      BGLCNA   O3     78     -0.650000  15.9994   
79     HCP1     3      BGLCNA   HO3    79     0.420000   1.0080    
80     CC3161   3      BGLCNA   C4     80     0.090000   12.0110   
81     HCA1     3      BGLCNA   H4     81     0.090000   1.0080    
82     OC301    3      BGLCNA   O4     82     -0.360000  15.9994   
83     CC321    3      BGLCNA   C6     83     0.050000   12.0110   
84     HCA2     3      BGLCNA   H61    84     0.090000   1.0080    
85     HCA2     3      BGLCNA   H62    85     0.090000   1.0080    
86     OC311    3      BGLCNA   O6     86     -0.650000  15.9994   
87     HCP1     3      BGLCNA   HO6    87     0.420000   1.0080    
88     CC3162   4      BMAN     C1     88     0.290000   12.0110   
89     HCA1     4      BMAN     H1     89     0.090000   1.0080    
90     CC3163   4      BMAN     C5     90     0.110000   12.0110   
91     HCA1     4      BMAN     H5     91     0.090000   1.0080    
92     OC3C61   4      BMAN     O5     92     -0.400000  15.9994   
93     CC3161   4      BMAN     C2     93     0.140000   12.0110   
94     HCA1     4      BMAN     H2     94     0.090000   1.0080    
95     OC311    4      BMAN     O2     95     -0.650000  15.9994   
96     HCP1     4      BMAN     HO2    96     0.420000   1.0080    
97     CC3161   4      BMAN     C3     97     0.090000   12.0110   
98     HCA1     4      BMAN     H3     98     0.090000   1.0080    
99     OC301    4      BMAN     O3     99     -0.360000  15.9994   
100    CC3161   4      BMAN     C4     100    0.140000   12.0110   
101    HCA1     4      BMAN     H4     101    0.090000   1.0080    
102    OC311    4      BMAN     O4     102    -0.650000  15.9994   
103    HCP1     4      BMAN     HO4    103    0.420000   1.0080    
104    CC321    4      BMAN     C6     104    0.000000   12.0110   
105    HCA2     4      BMAN     H61    105    0.090000   1.0080    
106    HCA2     4      BMAN     H62    106    0.090000   1.0080    
107    OC301    4      BMAN     O6     107    -0.360000  15.9994   
108    CC3162   5      AMAN     C1     108    0.290000   12.0110   
109    HCA1     5      AMAN     H1     109    0.090000   1.0080    
110    CC3163   5      AMAN     C5     110    0.110000   12.0110   
111    HCA1     5      AMAN     H5     111    0.090000   1.0080    
112    OC3C61   5      AMAN     O5     112    -0.400000  15.9994   
113    CC3161   5      AMAN     C2     113    0.090000   12.0110   
114    HCA1     5      AMAN     H2     114    0.090000   1.0080    
115    OC301    5      AMAN     O2     115    -0.360000  15.9994   
116    CC3161   5      AMAN     C3     116    0.140000   12.0110   
117    HCA1     5      AMAN     H3     117    0.090000   1.0080    
118    OC311    5      AMAN     O3     118    -0.650000  15.9994   
119    HCP1     5      AMAN     HO3    119    0.420000   1.0080    
120    CC3161   5      AMAN     C4     120    0.140000   12.0110   
121    HCA1     5      AMAN     H4     121    0.090000   1.0080    
122    OC311    5      AMAN     O4     122    -0.650000  15.9994   
123    HCP1     5      AMAN     HO4    123    0.420000   1.0080    
124    CC321    5      AMAN     C6     124    0.050000   12.0110   
125    HCA2     5      AMAN     H61    125    0.090000   1.0080    
126    HCA2     5      AMAN     H62    126    0.090000   1.0080    
127    OC311    5      AMAN     O6     127    -0.650000  15.9994   
128    HCP1     5      AMAN     HO6    128    0.420000   1.0080    
129    CC3162   6      BGLCNA   C1     129    0.290000   12.0110   
130    HCA1     6      BGLCNA   H1     130    0.090000   1.0080    
131    CC3163   6      BGLCNA   C5     131    0.110000   12.0110   
132    HCA1     6      BGLCNA   H5     132    0.090000   1.0080    
133    OC3C61   6      BGLCNA   O5     133    -0.400000  15.9994   
134    CC3161   6      BGLCNA   C2     134    0.070000   12.0110   
135    HCA1     6      BGLCNA   H2     135    0.090000   1.0080    
136    NC2D1    6      BGLCNA   N      136    -0.470000  14.0070   
137    HCP1     6      BGLCNA   HN     137    0.310000   1.0080    
138    CC2O1    6      BGLCNA   C      138    0.510000   12.0110   
139    OC2D1    6      BGLCNA   O      139    -0.510000  15.9994   
140    CC331    6      BGLCNA   CT     140    -0.270000  12.0110   
141    HCA3     6      BGLCNA   HT1    141    0.090000   1.0080    
142    HCA3     6      BGLCNA   HT2    142    0.090000   1.0080    
143    HCA3     6      BGLCNA   HT3    143    0.090000   1.0080    
144    CC3161   6      BGLCNA   C3     144    0.140000   12.0110   
145    HCA1     6      BGLCNA   H3     145    0.090000   1.0080    
146    OC311    6      BGLCNA   O3     146    -0.650000  15.9994   
147    HCP1     6      BGLCNA   HO3    147    0.420000   1.0080    
148    CC3161   6      BGLCNA   C4     148    0.140000   12.0110   
149    HCA1     6      BGLCNA   H4     149    0.090000   1.0080    
150    OC311    6      BGLCNA   O4     150    -0.650000  15.9994   
151    HCP1     6      BGLCNA   HO4    151    0.420000   1.0080    
152    CC321    6      BGLCNA   C6     152    0.050000   12.0110   
153    HCA2     6      BGLCNA   H61    153    0.090000   1.0080    
154    HCA2     6      BGLCNA   H62    154    0.090000   1.0080    
155    OC311    6      BGLCNA   O6     155    -0.650000  15.9994   
156    HCP1     6      BGLCNA   HO6    156    0.420000   1.0080    
157    CC3162   7      AMAN     C1     157    0.290000   12.0110   
158    HCA1     7      AMAN     H1     158    0.090000   1.0080    
159    CC3163   7      AMAN     C5     159    0.110000   12.0110   
160    HCA1     7      AMAN     H5     160    0.090000   1.0080    
161    OC3C61   7      AMAN     O5     161    -0.400000  15.9994   
162    CC3161   7      AMAN     C2     162    0.090000   12.0110   
163    HCA1     7      AMAN     H2     163    0.090000   1.0080    
164    OC301    7      AMAN     O2     164    -0.360000  15.9994   
165    CC3161   7      AMAN     C3     165    0.140000   12.0110   
166    HCA1     7      AMAN     H3     166    0.090000   1.0080    
167    OC311    7      AMAN     O3     167    -0.650000  15.9994   
168    HCP1     7      AMAN     HO3    168    0.420000   1.0080    
169    CC3161   7      AMAN     C4     169    0.140000   12.0110   
170    HCA1     7      AMAN     H4     170    0.090000   1.0080    
171    OC311    7      AMAN     O4     171    -0.650000  15.9994   
172    HCP1     7      AMAN     HO4    172    0.420000   1.0080    
173    CC321    7      AMAN     C6     173    0.050000   12.0110   
174    HCA2     7      AMAN     H61    174    0.090000   1.0080    
175    HCA2     7      AMAN     H62    175    0.090000   1.0080    
176    OC311    7      AMAN     O6     176    -0.650000  15.9994   
177    HCP1     7      AMAN     HO6    177    0.420000   1.0080    
178    CC3162   8      BGLCNA   C1     178    0.290000   12.0110   
179    HCA1     8      BGLCNA   H1     179    0.090000   1.0080    
180    CC3163   8      BGLCNA   C5     180    0.110000   12.0110   
181    HCA1     8      BGLCNA   H5     181    0.090000   1.0080    
182    OC3C61   8      BGLCNA   O5     182    -0.400000  15.9994   
183    CC3161   8      BGLCNA   C2     183    0.070000   12.0110   
184    HCA1     8      BGLCNA   H2     184    0.090000   1.0080    
185    NC2D1    8      BGLCNA   N      185    -0.470000  14.0070   
186    HCP1     8      BGLCNA   HN     186    0.310000   1.0080    
187    CC2O1    8      BGLCNA   C      187    0.510000   12.0110   
188    OC2D1    8      BGLCNA   O      188    -0.510000  15.9994   
189    CC331    8      BGLCNA   CT     189    -0.270000  12.0110   
190    HCA3     8      BGLCNA   HT1    190    0.090000   1.0080    
191    HCA3     8      BGLCNA   HT2    191    0.090000   1.0080    
192    HCA3     8      BGLCNA   HT3    192    0.090000   1.0080    
193    CC3161   8      BGLCNA   C3     193    0.140000   12.0110   
194    HCA1     8      BGLCNA   H3     194    0.090000   1.0080    
195    OC311    8      BGLCNA   O3     195    -0.650000  15.9994   
196    HCP1     8      BGLCNA   HO3    196    0.420000   1.0080    
197    CC3161   8      BGLCNA   C4     197    0.140000   12.0110   
198    HCA1     8      BGLCNA   H4     198    0.090000   1.0080    
199    OC311    8      BGLCNA   O4     199    -0.650000  15.9994   
200    HCP1     8      BGLCNA   HO4    200    0.420000   1.0080    
201    CC321    8      BGLCNA   C6     201    0.050000   12.0110   
202    HCA2     8      BGLCNA   H61    202    0.090000   1.0080    
203    HCA2     8      BGLCNA   H62    203    0.090000   1.0080    
204    OC311    8      BGLCNA   O6     204    -0.650000  15.9994   
205    HCP1     8      BGLCNA   HO6    205    0.420000   1.0080    


[ bonds ]
; ai	aj	funct	b0	Kb
1 2 1
1 3 1
3 4 1
5 3 1
12 3 1
5 6 1
5 7 1
8 5 1
8 9 1
10 8 1
10 11 1
14 10 1
12 13 1
14 15 1
14 18 1
14 19 1
16 17 1
16 18 1
33 16 1
16 36 1
19 20 1
19 21 1
19 29 1
21 22 1
21 23 1
23 24 1
23 25 1
25 26 1
25 27 1
25 28 1
29 30 1
29 31 1
29 33 1
31 32 1
33 34 1
33 35 1
35 61 1
36 37 1
36 38 1
36 39 1
39 40 1
40 41 1
40 44 1
40 45 1
42 43 1
42 44 1
53 42 1
42 57 1
45 46 1
45 47 1
45 49 1
47 48 1
49 50 1
49 51 1
49 53 1
51 52 1
53 54 1
53 55 1
55 56 1
57 58 1
57 59 1
57 60 1
61 62 1
61 65 1
61 66 1
63 64 1
63 65 1
80 63 1
63 83 1
66 67 1
66 68 1
66 76 1
68 69 1
68 70 1
70 71 1
70 72 1
72 73 1
72 74 1
72 75 1
76 77 1
76 78 1
76 80 1
78 79 1
80 81 1
80 82 1
82 88 1
83 84 1
83 85 1
83 86 1
86 87 1
88 89 1
88 92 1
88 93 1
90 91 1
90 92 1
100 90 1
90 104 1
93 94 1
93 95 1
93 97 1
95 96 1
97 98 1
97 99 1
97 100 1
99 157 1
100 101 1
100 102 1
102 103 1
104 105 1
104 106 1
104 107 1
107 108 1
108 109 1
108 112 1
108 113 1
110 111 1
110 112 1
120 110 1
110 124 1
113 114 1
113 115 1
113 116 1
115 129 1
116 117 1
116 118 1
116 120 1
118 119 1
120 121 1
120 122 1
122 123 1
124 125 1
124 126 1
124 127 1
127 128 1
129 130 1
129 133 1
129 134 1
131 132 1
131 133 1
148 131 1
131 152 1
134 135 1
134 136 1
134 144 1
136 137 1
136 138 1
138 139 1
138 140 1
140 141 1
140 142 1
140 143 1
144 145 1
144 146 1
144 148 1
146 147 1
148 149 1
148 150 1
150 151 1
152 153 1
152 154 1
152 155 1
155 156 1
157 158 1
157 161 1
157 162 1
159 160 1
159 161 1
169 159 1
159 173 1
162 163 1
162 164 1
162 165 1
164 178 1
165 166 1
165 167 1
165 169 1
167 168 1
169 170 1
169 171 1
171 172 1
173 174 1
173 175 1
173 176 1
176 177 1
178 179 1
178 182 1
178 183 1
180 181 1
180 182 1
197 180 1
180 201 1
183 184 1
183 185 1
183 193 1
185 186 1
185 187 1
187 188 1
187 189 1
189 190 1
189 191 1
189 192 1
193 194 1
193 195 1
193 197 1
195 196 1
197 198 1
197 199 1
199 200 1
201 202 1
201 203 1
201 204 1
204 205 1

[ pairs ]
; ai	aj	funct	c6	c12 or
; ai	aj	funct	fudgeQQ	q1	q2	c6	c12
1 6 1
1 7 1
1 8 1
1 13 1
2 4 1
2 5 1
2 12 1
3 9 1
3 10 1
4 6 1
4 7 1
4 8 1
4 13 1
5 11 1
5 13 1
5 14 1
6 9 1
6 10 1
6 12 1
7 9 1
7 10 1
7 12 1
8 12 1
8 15 1
8 18 1
8 19 1
9 11 1
9 14 1
10 16 1
10 20 1
10 21 1
10 29 1
11 15 1
11 18 1
11 19 1
14 17 1
14 22 1
14 23 1
14 30 1
14 31 1
14 33 1
14 36 1
15 16 1
15 20 1
15 21 1
15 29 1
16 19 1
16 30 1
16 31 1
16 40 1
16 61 1
17 29 1
17 34 1
17 35 1
17 37 1
17 38 1
17 39 1
18 20 1
18 21 1
18 29 1
18 34 1
18 35 1
18 37 1
18 38 1
18 39 1
19 24 1
19 25 1
19 32 1
19 34 1
19 35 1
20 22 1
20 23 1
20 30 1
20 31 1
20 33 1
21 26 1
21 27 1
21 28 1
21 30 1
21 31 1
21 33 1
22 24 1
22 25 1
22 29 1
23 29 1
24 26 1
24 27 1
24 28 1
29 36 1
29 61 1
30 32 1
30 34 1
30 35 1
31 34 1
31 35 1
32 33 1
33 37 1
33 38 1
33 39 1
33 62 1
33 65 1
33 66 1
34 36 1
34 61 1
35 36 1
35 63 1
35 67 1
35 68 1
35 76 1
36 41 1
36 44 1
36 45 1
37 40 1
38 40 1
39 42 1
39 46 1
39 47 1
39 49 1
40 43 1
40 48 1
40 50 1
40 51 1
40 53 1
40 57 1
41 42 1
41 46 1
41 47 1
41 49 1
42 45 1
42 50 1
42 51 1
42 56 1
43 49 1
43 54 1
43 55 1
43 58 1
43 59 1
43 60 1
44 46 1
44 47 1
44 49 1
44 54 1
44 55 1
44 58 1
44 59 1
44 60 1
45 52 1
45 54 1
45 55 1
46 48 1
46 50 1
46 51 1
46 53 1
47 50 1
47 51 1
47 53 1
48 49 1
49 56 1
49 57 1
50 52 1
50 54 1
50 55 1
51 54 1
51 55 1
52 53 1
53 58 1
53 59 1
53 60 1
54 56 1
54 57 1
55 57 1
61 64 1
61 69 1
61 70 1
61 77 1
61 78 1
61 80 1
61 83 1
62 63 1
62 67 1
62 68 1
62 76 1
63 66 1
63 77 1
63 78 1
63 87 1
63 88 1
64 76 1
64 81 1
64 82 1
64 84 1
64 85 1
64 86 1
65 67 1
65 68 1
65 76 1
65 81 1
65 82 1
65 84 1
65 85 1
65 86 1
66 71 1
66 72 1
66 79 1
66 81 1
66 82 1
67 69 1
67 70 1
67 77 1
67 78 1
67 80 1
68 73 1
68 74 1
68 75 1
68 77 1
68 78 1
68 80 1
69 71 1
69 72 1
69 76 1
70 76 1
71 73 1
71 74 1
71 75 1
76 83 1
76 88 1
77 79 1
77 81 1
77 82 1
78 81 1
78 82 1
79 80 1
80 84 1
80 85 1
80 86 1
80 89 1
80 92 1
80 93 1
81 83 1
81 88 1
82 83 1
82 90 1
82 94 1
82 95 1
82 97 1
84 87 1
85 87 1
88 91 1
88 96 1
88 98 1
88 99 1
88 100 1
88 104 1
89 90 1
89 94 1
89 95 1
89 97 1
90 93 1
90 98 1
90 99 1
90 103 1
90 108 1
91 97 1
91 101 1
91 102 1
91 105 1
91 106 1
91 107 1
92 94 1
92 95 1
92 97 1
92 101 1
92 102 1
92 105 1
92 106 1
92 107 1
93 101 1
93 102 1
93 157 1
94 96 1
94 98 1
94 99 1
94 100 1
95 98 1
95 99 1
95 100 1
96 97 1
97 103 1
97 104 1
97 158 1
97 161 1
97 162 1
98 101 1
98 102 1
98 157 1
99 101 1
99 102 1
99 159 1
99 163 1
99 164 1
99 165 1
100 105 1
100 106 1
100 107 1
100 157 1
101 103 1
101 104 1
102 104 1
104 109 1
104 112 1
104 113 1
105 108 1
106 108 1
107 110 1
107 114 1
107 115 1
107 116 1
108 111 1
108 117 1
108 118 1
108 120 1
108 124 1
108 129 1
109 110 1
109 114 1
109 115 1
109 116 1
110 113 1
110 117 1
110 118 1
110 123 1
110 128 1
111 116 1
111 121 1
111 122 1
111 125 1
111 126 1
111 127 1
112 114 1
112 115 1
112 116 1
112 121 1
112 122 1
112 125 1
112 126 1
112 127 1
113 119 1
113 121 1
113 122 1
113 130 1
113 133 1
113 134 1
114 117 1
114 118 1
114 120 1
114 129 1
115 117 1
115 118 1
115 120 1
115 131 1
115 135 1
115 136 1
115 144 1
116 123 1
116 124 1
116 129 1
117 119 1
117 121 1
117 122 1
118 121 1
118 122 1
119 120 1
120 125 1
120 126 1
120 127 1
121 123 1
121 124 1
122 124 1
125 128 1
126 128 1
129 132 1
129 137 1
129 138 1
129 145 1
129 146 1
129 148 1
129 152 1
130 131 1
130 135 1
130 136 1
130 144 1
131 134 1
131 145 1
131 146 1
131 151 1
131 156 1
132 144 1
132 149 1
132 150 1
132 153 1
132 154 1
132 155 1
133 135 1
133 136 1
133 144 1
133 149 1
133 150 1
133 153 1
133 154 1
133 155 1
134 139 1
134 140 1
134 147 1
134 149 1
134 150 1
135 137 1
135 138 1
135 145 1
135 146 1
135 148 1
136 141 1
136 142 1
136 143 1
136 145 1
136 146 1
136 148 1
137 139 1
137 140 1
137 144 1
138 144 1
139 141 1
139 142 1
139 143 1
144 151 1
144 152 1
145 147 1
145 149 1
145 150 1
146 149 1
146 150 1
147 148 1
148 153 1
148 154 1
148 155 1
149 151 1
149 152 1
150 152 1
153 156 1
154 156 1
157 160 1
157 166 1
157 167 1
157 169 1
157 173 1
157 178 1
158 159 1
158 163 1
158 164 1
158 165 1
159 162 1
159 166 1
159 167 1
159 172 1
159 177 1
160 165 1
160 170 1
160 171 1
160 174 1
160 175 1
160 176 1
161 163 1
161 164 1
161 165 1
161 170 1
161 171 1
161 174 1
161 175 1
161 176 1
162 168 1
162 170 1
162 171 1
162 179 1
162 182 1
162 183 1
163 166 1
163 167 1
163 169 1
163 178 1
164 166 1
164 167 1
164 169 1
164 180 1
164 184 1
164 185 1
164 193 1
165 172 1
165 173 1
165 178 1
166 168 1
166 170 1
166 171 1
167 170 1
167 171 1
168 169 1
169 174 1
169 175 1
169 176 1
170 172 1
170 173 1
171 173 1
174 177 1
175 177 1
178 181 1
178 186 1
178 187 1
178 194 1
178 195 1
178 197 1
178 201 1
179 180 1
179 184 1
179 185 1
179 193 1
180 183 1
180 194 1
180 195 1
180 200 1
180 205 1
181 193 1
181 198 1
181 199 1
181 202 1
181 203 1
181 204 1
182 184 1
182 185 1
182 193 1
182 198 1
182 199 1
182 202 1
182 203 1
182 204 1
183 188 1
183 189 1
183 196 1
183 198 1
183 199 1
184 186 1
184 187 1
184 194 1
184 195 1
184 197 1
185 190 1
185 191 1
185 192 1
185 194 1
185 195 1
185 197 1
186 188 1
186 189 1
186 193 1
187 193 1
188 190 1
188 191 1
188 192 1
193 200 1
193 201 1
194 196 1
194 198 1
194 199 1
195 198 1
195 199 1
196 197 1
197 202 1
197 203 1
197 204 1
198 200 1
198 201 1
199 201 1
202 205 1
203 205 1

[ angles ] 
; ai	aj	ak	funct	th0	cth	S0	Kub
2 1 3 5
1 3 4 5
1 3 5 5
1 3 12 5
4 3 5 5
4 3 12 5
5 3 12 5
3 5 6 5
3 5 7 5
3 5 8 5
6 5 7 5
6 5 8 5
7 5 8 5
5 8 9 5
5 8 10 5
9 8 10 5
8 10 11 5
8 10 14 5
11 10 14 5
3 12 13 5
10 14 15 5
10 14 18 5
10 14 19 5
15 14 18 5
15 14 19 5
18 14 19 5
17 16 18 5
17 16 33 5
17 16 36 5
18 16 33 5
18 16 36 5
33 16 36 5
14 18 16 5
14 19 20 5
14 19 21 5
14 19 29 5
20 19 21 5
20 19 29 5
21 19 29 5
19 21 22 5
19 21 23 5
22 21 23 5
21 23 24 5
21 23 25 5
24 23 25 5
23 25 26 5
23 25 27 5
23 25 28 5
26 25 27 5
26 25 28 5
27 25 28 5
19 29 30 5
19 29 31 5
19 29 33 5
30 29 31 5
30 29 33 5
31 29 33 5
29 31 32 5
16 33 29 5
16 33 34 5
16 33 35 5
29 33 34 5
29 33 35 5
34 33 35 5
33 35 61 5
16 36 37 5
16 36 38 5
16 36 39 5
37 36 38 5
37 36 39 5
38 36 39 5
36 39 40 5
39 40 41 5
39 40 44 5
39 40 45 5
41 40 44 5
41 40 45 5
44 40 45 5
43 42 44 5
43 42 53 5
43 42 57 5
44 42 53 5
44 42 57 5
53 42 57 5
40 44 42 5
40 45 46 5
40 45 47 5
40 45 49 5
46 45 47 5
46 45 49 5
47 45 49 5
45 47 48 5
45 49 50 5
45 49 51 5
45 49 53 5
50 49 51 5
50 49 53 5
51 49 53 5
49 51 52 5
42 53 49 5
42 53 54 5
42 53 55 5
49 53 54 5
49 53 55 5
54 53 55 5
53 55 56 5
42 57 58 5
42 57 59 5
42 57 60 5
58 57 59 5
58 57 60 5
59 57 60 5
35 61 62 5
35 61 65 5
35 61 66 5
62 61 65 5
62 61 66 5
65 61 66 5
64 63 65 5
64 63 80 5
64 63 83 5
65 63 80 5
65 63 83 5
80 63 83 5
61 65 63 5
61 66 67 5
61 66 68 5
61 66 76 5
67 66 68 5
67 66 76 5
68 66 76 5
66 68 69 5
66 68 70 5
69 68 70 5
68 70 71 5
68 70 72 5
71 70 72 5
70 72 73 5
70 72 74 5
70 72 75 5
73 72 74 5
73 72 75 5
74 72 75 5
66 76 77 5
66 76 78 5
66 76 80 5
77 76 78 5
77 76 80 5
78 76 80 5
76 78 79 5
63 80 76 5
63 80 81 5
63 80 82 5
76 80 81 5
76 80 82 5
81 80 82 5
80 82 88 5
63 83 84 5
63 83 85 5
63 83 86 5
84 83 85 5
84 83 86 5
85 83 86 5
83 86 87 5
82 88 89 5
82 88 92 5
82 88 93 5
89 88 92 5
89 88 93 5
92 88 93 5
91 90 92 5
91 90 100 5
91 90 104 5
92 90 100 5
92 90 104 5
100 90 104 5
88 92 90 5
88 93 94 5
88 93 95 5
88 93 97 5
94 93 95 5
94 93 97 5
95 93 97 5
93 95 96 5
93 97 98 5
93 97 99 5
93 97 100 5
98 97 99 5
98 97 100 5
99 97 100 5
97 99 157 5
90 100 97 5
90 100 101 5
90 100 102 5
97 100 101 5
97 100 102 5
101 100 102 5
100 102 103 5
90 104 105 5
90 104 106 5
90 104 107 5
105 104 106 5
105 104 107 5
106 104 107 5
104 107 108 5
107 108 109 5
107 108 112 5
107 108 113 5
109 108 112 5
109 108 113 5
112 108 113 5
111 110 112 5
111 110 120 5
111 110 124 5
112 110 120 5
112 110 124 5
120 110 124 5
108 112 110 5
108 113 114 5
108 113 115 5
108 113 116 5
114 113 115 5
114 113 116 5
115 113 116 5
113 115 129 5
113 116 117 5
113 116 118 5
113 116 120 5
117 116 118 5
117 116 120 5
118 116 120 5
116 118 119 5
110 120 116 5
110 120 121 5
110 120 122 5
116 120 121 5
116 120 122 5
121 120 122 5
120 122 123 5
110 124 125 5
110 124 126 5
110 124 127 5
125 124 126 5
125 124 127 5
126 124 127 5
124 127 128 5
115 129 130 5
115 129 133 5
115 129 134 5
130 129 133 5
130 129 134 5
133 129 134 5
132 131 133 5
132 131 148 5
132 131 152 5
133 131 148 5
133 131 152 5
148 131 152 5
129 133 131 5
129 134 135 5
129 134 136 5
129 134 144 5
135 134 136 5
135 134 144 5
136 134 144 5
134 136 137 5
134 136 138 5
137 136 138 5
136 138 139 5
136 138 140 5
139 138 140 5
138 140 141 5
138 140 142 5
138 140 143 5
141 140 142 5
141 140 143 5
142 140 143 5
134 144 145 5
134 144 146 5
134 144 148 5
145 144 146 5
145 144 148 5
146 144 148 5
144 146 147 5
131 148 144 5
131 148 149 5
131 148 150 5
144 148 149 5
144 148 150 5
149 148 150 5
148 150 151 5
131 152 153 5
131 152 154 5
131 152 155 5
153 152 154 5
153 152 155 5
154 152 155 5
152 155 156 5
99 157 158 5
99 157 161 5
99 157 162 5
158 157 161 5
158 157 162 5
161 157 162 5
160 159 161 5
160 159 169 5
160 159 173 5
161 159 169 5
161 159 173 5
169 159 173 5
157 161 159 5
157 162 163 5
157 162 164 5
157 162 165 5
163 162 164 5
163 162 165 5
164 162 165 5
162 164 178 5
162 165 166 5
162 165 167 5
162 165 169 5
166 165 167 5
166 165 169 5
167 165 169 5
165 167 168 5
159 169 165 5
159 169 170 5
159 169 171 5
165 169 170 5
165 169 171 5
170 169 171 5
169 171 172 5
159 173 174 5
159 173 175 5
159 173 176 5
174 173 175 5
174 173 176 5
175 173 176 5
173 176 177 5
164 178 179 5
164 178 182 5
164 178 183 5
179 178 182 5
179 178 183 5
182 178 183 5
181 180 182 5
181 180 197 5
181 180 201 5
182 180 197 5
182 180 201 5
197 180 201 5
178 182 180 5
178 183 184 5
178 183 185 5
178 183 193 5
184 183 185 5
184 183 193 5
185 183 193 5
183 185 186 5
183 185 187 5
186 185 187 5
185 187 188 5
185 187 189 5
188 187 189 5
187 189 190 5
187 189 191 5
187 189 192 5
190 189 191 5
190 189 192 5
191 189 192 5
183 193 194 5
183 193 195 5
183 193 197 5
194 193 195 5
194 193 197 5
195 193 197 5
193 195 196 5
180 197 193 5
180 197 198 5
180 197 199 5
193 197 198 5
193 197 199 5
198 197 199 5
197 199 200 5
180 201 202 5
180 201 203 5
180 201 204 5
202 201 203 5
202 201 204 5
203 201 204 5
201 204 205 5

[ dihedrals ]
; ai	aj	ak	al	funct	phi0	cp	mult
2 1 3 4 9
2 1 3 5 9
2 1 3 12 9
1 3 5 6 9
1 3 5 7 9
1 3 5 8 9
4 3 5 6 9
4 3 5 7 9
4 3 5 8 9
1 3 12 13 9
4 3 12 13 9
5 3 12 13 9
6 5 3 12 9
7 5 3 12 9
8 5 3 12 9
3 5 8 9 9
3 5 8 10 9
6 5 8 9 9
6 5 8 10 9
7 5 8 9 9
7 5 8 10 9
5 8 10 11 9
5 8 10 14 9
9 8 10 11 9
9 8 10 14 9
8 10 14 15 9
8 10 14 18 9
8 10 14 19 9
11 10 14 15 9
11 10 14 18 9
11 10 14 19 9
10 14 18 16 9
15 14 18 16 9
10 14 19 20 9
10 14 19 21 9
10 14 19 29 9
15 14 19 20 9
15 14 19 21 9
15 14 19 29 9
18 14 19 20 9
18 14 19 21 9
18 14 19 29 9
17 16 33 29 9
17 16 33 34 9
17 16 33 35 9
18 16 33 29 9
18 16 33 34 9
18 16 33 35 9
17 16 36 37 9
17 16 36 38 9
17 16 36 39 9
18 16 36 37 9
18 16 36 38 9
18 16 36 39 9
33 16 36 37 9
33 16 36 38 9
33 16 36 39 9
16 18 14 19 9
14 18 16 17 9
14 18 16 33 9
14 18 16 36 9
14 19 21 22 9
14 19 21 23 9
20 19 21 22 9
20 19 21 23 9
14 19 29 30 9
14 19 29 31 9
14 19 29 33 9
20 19 29 30 9
20 19 29 31 9
20 19 29 33 9
21 19 29 30 9
21 19 29 31 9
21 19 29 33 9
22 21 19 29 9
23 21 19 29 9
19 21 23 24 9
19 21 23 25 9
22 21 23 24 9
22 21 23 25 9
21 23 25 26 9
21 23 25 27 9
21 23 25 28 9
24 23 25 26 9
24 23 25 27 9
24 23 25 28 9
19 29 31 32 9
30 29 31 32 9
19 29 33 34 9
19 29 33 35 9
30 29 33 34 9
30 29 33 35 9
31 29 33 34 9
31 29 33 35 9
32 31 29 33 9
29 33 16 36 9
34 33 16 36 9
35 33 16 36 9
16 33 29 19 9
16 33 29 30 9
16 33 29 31 9
16 33 35 61 9
29 33 35 61 9
34 33 35 61 9
33 35 61 62 9
33 35 61 65 9
33 35 61 66 9
16 36 39 40 9
37 36 39 40 9
38 36 39 40 9
36 39 40 41 9
36 39 40 44 9
36 39 40 45 9
39 40 44 42 9
41 40 44 42 9
39 40 45 46 9
39 40 45 47 9
39 40 45 49 9
41 40 45 46 9
41 40 45 47 9
41 40 45 49 9
44 40 45 46 9
44 40 45 47 9
44 40 45 49 9
43 42 53 49 9
43 42 53 54 9
43 42 53 55 9
44 42 53 49 9
44 42 53 54 9
44 42 53 55 9
43 42 57 58 9
43 42 57 59 9
43 42 57 60 9
44 42 57 58 9
44 42 57 59 9
44 42 57 60 9
53 42 57 58 9
53 42 57 59 9
53 42 57 60 9
42 44 40 45 9
40 44 42 43 9
40 44 42 53 9
40 44 42 57 9
40 45 47 48 9
46 45 47 48 9
40 45 49 50 9
40 45 49 51 9
40 45 49 53 9
46 45 49 50 9
46 45 49 51 9
46 45 49 53 9
47 45 49 50 9
47 45 49 51 9
47 45 49 53 9
48 47 45 49 9
45 49 51 52 9
50 49 51 52 9
45 49 53 54 9
45 49 53 55 9
50 49 53 54 9
50 49 53 55 9
51 49 53 54 9
51 49 53 55 9
52 51 49 53 9
49 53 42 57 9
54 53 42 57 9
55 53 42 57 9
42 53 49 45 9
42 53 49 50 9
42 53 49 51 9
42 53 55 56 9
49 53 55 56 9
54 53 55 56 9
35 61 65 63 9
62 61 65 63 9
35 61 66 67 9
35 61 66 68 9
35 61 66 76 9
62 61 66 67 9
62 61 66 68 9
62 61 66 76 9
65 61 66 67 9
65 61 66 68 9
65 61 66 76 9
64 63 80 76 9
64 63 80 81 9
64 63 80 82 9
65 63 80 76 9
65 63 80 81 9
65 63 80 82 9
64 63 83 84 9
64 63 83 85 9
64 63 83 86 9
65 63 83 84 9
65 63 83 85 9
65 63 83 86 9
80 63 83 84 9
80 63 83 85 9
80 63 83 86 9
63 65 61 66 9
61 65 63 64 9
61 65 63 80 9
61 65 63 83 9
61 66 68 69 9
61 66 68 70 9
67 66 68 69 9
67 66 68 70 9
61 66 76 77 9
61 66 76 78 9
61 66 76 80 9
67 66 76 77 9
67 66 76 78 9
67 66 76 80 9
68 66 76 77 9
68 66 76 78 9
68 66 76 80 9
69 68 66 76 9
70 68 66 76 9
66 68 70 71 9
66 68 70 72 9
69 68 70 71 9
69 68 70 72 9
68 70 72 73 9
68 70 72 74 9
68 70 72 75 9
71 70 72 73 9
71 70 72 74 9
71 70 72 75 9
66 76 78 79 9
77 76 78 79 9
66 76 80 81 9
66 76 80 82 9
77 76 80 81 9
77 76 80 82 9
78 76 80 81 9
78 76 80 82 9
79 78 76 80 9
76 80 63 83 9
81 80 63 83 9
82 80 63 83 9
63 80 76 66 9
63 80 76 77 9
63 80 76 78 9
63 80 82 88 9
76 80 82 88 9
81 80 82 88 9
80 82 88 89 9
80 82 88 92 9
80 82 88 93 9
63 83 86 87 9
84 83 86 87 9
85 83 86 87 9
82 88 92 90 9
89 88 92 90 9
82 88 93 94 9
82 88 93 95 9
82 88 93 97 9
89 88 93 94 9
89 88 93 95 9
89 88 93 97 9
92 88 93 94 9
92 88 93 95 9
92 88 93 97 9
91 90 100 97 9
91 90 100 101 9
91 90 100 102 9
92 90 100 97 9
92 90 100 101 9
92 90 100 102 9
91 90 104 105 9
91 90 104 106 9
91 90 104 107 9
92 90 104 105 9
92 90 104 106 9
92 90 104 107 9
100 90 104 105 9
100 90 104 106 9
100 90 104 107 9
90 92 88 93 9
88 92 90 91 9
88 92 90 100 9
88 92 90 104 9
88 93 95 96 9
94 93 95 96 9
88 93 97 98 9
88 93 97 99 9
88 93 97 100 9
94 93 97 98 9
94 93 97 99 9
94 93 97 100 9
95 93 97 98 9
95 93 97 99 9
95 93 97 100 9
96 95 93 97 9
93 97 99 157 9
98 97 99 157 9
100 97 99 157 9
93 97 100 101 9
93 97 100 102 9
98 97 100 101 9
98 97 100 102 9
99 97 100 101 9
99 97 100 102 9
97 99 157 158 9
97 99 157 161 9
97 99 157 162 9
97 100 90 104 9
101 100 90 104 9
102 100 90 104 9
90 100 97 93 9
90 100 97 98 9
90 100 97 99 9
90 100 102 103 9
97 100 102 103 9
101 100 102 103 9
90 104 107 108 9
105 104 107 108 9
106 104 107 108 9
104 107 108 109 9
104 107 108 112 9
104 107 108 113 9
107 108 112 110 9
109 108 112 110 9
107 108 113 114 9
107 108 113 115 9
107 108 113 116 9
109 108 113 114 9
109 108 113 115 9
109 108 113 116 9
112 108 113 114 9
112 108 113 115 9
112 108 113 116 9
111 110 120 116 9
111 110 120 121 9
111 110 120 122 9
112 110 120 116 9
112 110 120 121 9
112 110 120 122 9
111 110 124 125 9
111 110 124 126 9
111 110 124 127 9
112 110 124 125 9
112 110 124 126 9
112 110 124 127 9
120 110 124 125 9
120 110 124 126 9
120 110 124 127 9
110 112 108 113 9
108 112 110 111 9
108 112 110 120 9
108 112 110 124 9
108 113 115 129 9
114 113 115 129 9
116 113 115 129 9
108 113 116 117 9
108 113 116 118 9
108 113 116 120 9
114 113 116 117 9
114 113 116 118 9
114 113 116 120 9
115 113 116 117 9
115 113 116 118 9
115 113 116 120 9
113 115 129 130 9
113 115 129 133 9
113 115 129 134 9
113 116 118 119 9
117 116 118 119 9
113 116 120 121 9
113 116 120 122 9
117 116 120 121 9
117 116 120 122 9
118 116 120 121 9
118 116 120 122 9
119 118 116 120 9
116 120 110 124 9
121 120 110 124 9
122 120 110 124 9
110 120 116 113 9
110 120 116 117 9
110 120 116 118 9
110 120 122 123 9
116 120 122 123 9
121 120 122 123 9
110 124 127 128 9
125 124 127 128 9
126 124 127 128 9
115 129 133 131 9
130 129 133 131 9
115 129 134 135 9
115 129 134 136 9
115 129 134 144 9
130 129 134 135 9
130 129 134 136 9
130 129 134 144 9
133 129 134 135 9
133 129 134 136 9
133 129 134 144 9
132 131 148 144 9
132 131 148 149 9
132 131 148 150 9
133 131 148 144 9
133 131 148 149 9
133 131 148 150 9
132 131 152 153 9
132 131 152 154 9
132 131 152 155 9
133 131 152 153 9
133 131 152 154 9
133 131 152 155 9
148 131 152 153 9
148 131 152 154 9
148 131 152 155 9
131 133 129 134 9
129 133 131 132 9
129 133 131 148 9
129 133 131 152 9
129 134 136 137 9
129 134 136 138 9
135 134 136 137 9
135 134 136 138 9
129 134 144 145 9
129 134 144 146 9
129 134 144 148 9
135 134 144 145 9
135 134 144 146 9
135 134 144 148 9
136 134 144 145 9
136 134 144 146 9
136 134 144 148 9
137 136 134 144 9
138 136 134 144 9
134 136 138 139 9
134 136 138 140 9
137 136 138 139 9
137 136 138 140 9
136 138 140 141 9
136 138 140 142 9
136 138 140 143 9
139 138 140 141 9
139 138 140 142 9
139 138 140 143 9
134 144 146 147 9
145 144 146 147 9
134 144 148 149 9
134 144 148 150 9
145 144 148 149 9
145 144 148 150 9
146 144 148 149 9
146 144 148 150 9
147 146 144 148 9
144 148 131 152 9
149 148 131 152 9
150 148 131 152 9
131 148 144 134 9
131 148 144 145 9
131 148 144 146 9
131 148 150 151 9
144 148 150 151 9
149 148 150 151 9
131 152 155 156 9
153 152 155 156 9
154 152 155 156 9
99 157 161 159 9
158 157 161 159 9
99 157 162 163 9
99 157 162 164 9
99 157 162 165 9
158 157 162 163 9
158 157 162 164 9
158 157 162 165 9
161 157 162 163 9
161 157 162 164 9
161 157 162 165 9
160 159 169 165 9
160 159 169 170 9
160 159 169 171 9
161 159 169 165 9
161 159 169 170 9
161 159 169 171 9
160 159 173 174 9
160 159 173 175 9
160 159 173 176 9
161 159 173 174 9
161 159 173 175 9
161 159 173 176 9
169 159 173 174 9
169 159 173 175 9
169 159 173 176 9
159 161 157 162 9
157 161 159 160 9
157 161 159 169 9
157 161 159 173 9
157 162 164 178 9
163 162 164 178 9
165 162 164 178 9
157 162 165 166 9
157 162 165 167 9
157 162 165 169 9
163 162 165 166 9
163 162 165 167 9
163 162 165 169 9
164 162 165 166 9
164 162 165 167 9
164 162 165 169 9
162 164 178 179 9
162 164 178 182 9
162 164 178 183 9
162 165 167 168 9
166 165 167 168 9
162 165 169 170 9
162 165 169 171 9
166 165 169 170 9
166 165 169 171 9
167 165 169 170 9
167 165 169 171 9
168 167 165 169 9
165 169 159 173 9
170 169 159 173 9
171 169 159 173 9
159 169 165 162 9
159 169 165 166 9
159 169 165 167 9
159 169 171 172 9
165 169 171 172 9
170 169 171 172 9
159 173 176 177 9
174 173 176 177 9
175 173 176 177 9
164 178 182 180 9
179 178 182 180 9
164 178 183 184 9
164 178 183 185 9
164 178 183 193 9
179 178 183 184 9
179 178 183 185 9
179 178 183 193 9
182 178 183 184 9
182 178 183 185 9
182 178 183 193 9
181 180 197 193 9
181 180 197 198 9
181 180 197 199 9
182 180 197 193 9
182 180 197 198 9
182 180 197 199 9
181 180 201 202 9
181 180 201 203 9
181 180 201 204 9
182 180 201 202 9
182 180 201 203 9
182 180 201 204 9
197 180 201 202 9
197 180 201 203 9
197 180 201 204 9
180 182 178 183 9
178 182 180 181 9
178 182 180 197 9
178 182 180 201 9
178 183 185 186 9
178 183 185 187 9
184 183 185 186 9
184 183 185 187 9
178 183 193 194 9
178 183 193 195 9
178 183 193 197 9
184 183 193 194 9
184 183 193 195 9
184 183 193 197 9
185 183 193 194 9
185 183 193 195 9
185 183 193 197 9
186 185 183 193 9
187 185 183 193 9
183 185 187 188 9
183 185 187 189 9
186 185 187 188 9
186 185 187 189 9
185 187 189 190 9
185 187 189 191 9
185 187 189 192 9
188 187 189 190 9
188 187 189 191 9
188 187 189 192 9
183 193 195 196 9
194 193 195 196 9
183 193 197 198 9
183 193 197 199 9
194 193 197 198 9
194 193 197 199 9
195 193 197 198 9
195 193 197 199 9
196 195 193 197 9
193 197 180 201 9
198 197 180 201 9
199 197 180 201 9
180 197 193 183 9
180 197 193 194 9
180 197 193 195 9
180 197 199 200 9
193 197 199 200 9
198 197 199 200 9
180 201 204 205 9
202 201 204 205 9
203 201 204 205 9

[ dihedrals ]
; ai	aj	ak	al	funct	q0	cq
8 5 10 9 2
8 10 5 9 2
10 8 14 11 2
21 23 19 22 2
23 25 21 24 2
68 70 66 69 2
70 72 68 71 2
136 138 134 137 2
138 140 136 139 2
185 187 183 186 2
187 189 185 188 2

[ cmap ] 
; ai	aj	ak	al	am	funct

#ifdef POSRES
[ position_restraints ]
1 1 POSRES_FC_BB POSRES_FC_BB POSRES_FC_BB
3 1 POSRES_FC_BB POSRES_FC_BB POSRES_FC_BB
5 1 POSRES_FC_SC POSRES_FC_SC POSRES_FC_SC
8 1 POSRES_FC_SC POSRES_FC_SC POSRES_FC_SC
9 1 POSRES_FC_SC POSRES_FC_SC POSRES_FC_SC
10 1 POSRES_FC_SC POSRES_FC_SC POSRES_FC_SC
12 1 POSRES_FC_BB POSRES_FC_BB POSRES_FC_BB
13 1 POSRES_FC_BB POSRES_FC_BB POSRES_FC_BB
14 1 POSRES_FC_BB POSRES_FC_BB POSRES_FC_BB
16 1 POSRES_FC_BB POSRES_FC_BB POSRES_FC_BB
18 1 POSRES_FC_BB POSRES_FC_BB POSRES_FC_BB
19 1 POSRES_FC_BB POSRES_FC_BB POSRES_FC_BB
21 1 POSRES_FC_SC POSRES_FC_SC POSRES_FC_SC
23 1 POSRES_FC_SC POSRES_FC_SC POSRES_FC_SC
24 1 POSRES_FC_SC POSRES_FC_SC POSRES_FC_SC
25 1 POSRES_FC_SC POSRES_FC_SC POSRES_FC_SC
29 1 POSRES_FC_BB POSRES_FC_BB POSRES_FC_BB
31 1 POSRES_FC_SC POSRES_FC_SC POSRES_FC_SC
33 1 POSRES_FC_BB POSRES_FC_BB POSRES_FC_BB
35 1 POSRES_FC_SC POSRES_FC_SC POSRES_FC_SC
36 1 POSRES_FC_SC POSRES_FC_SC POSRES_FC_SC
39 1 POSRES_FC_SC POSRES_FC_SC POSRES_FC_SC
40 1 POSRES_FC_BB POSRES_FC_BB POSRES_FC_BB
42 1 POSRES_FC_BB POSRES_FC_BB POSRES_FC_BB
44 1 POSRES_FC_BB POSRES_FC_BB POSRES_FC_BB
45 1 POSRES_FC_BB POSRES_FC_BB POSRES_FC_BB
47 1 POSRES_FC_SC POSRES_FC_SC POSRES_FC_SC
49 1 POSRES_FC_BB POSRES_FC_BB POSRES_FC_BB
51 1 POSRES_FC_SC POSRES_FC_SC POSRES_FC_SC
53 1 POSRES_FC_BB POSRES_FC_BB POSRES_FC_BB
55 1 POSRES_FC_SC POSRES_FC_SC POSRES_FC_SC
57 1 POSRES_FC_SC POSRES_FC_SC POSRES_FC_SC
61 1 POSRES_FC_BB POSRES_FC_BB POSRES_FC_BB
63 1 POSRES_FC_BB POSRES_FC_BB POSRES_FC_BB
65 1 POSRES_FC_BB POSRES_FC_BB POSRES_FC_BB
66 1 POSRES_FC_BB POSRES_FC_BB POSRES_FC_BB
68 1 POSRES_FC_SC POSRES_FC_SC POSRES_FC_SC
70 1 POSRES_FC_SC POSRES_FC_SC POSRES_FC_SC
71 1 POSRES_FC_SC POSRES_FC_SC POSRES_FC_SC
72 1 POSRES_FC_SC POSRES_FC_SC POSRES_FC_SC
76 1 POSRES_FC_BB POSRES_FC_BB POSRES_FC_BB
78 1 POSRES_FC_SC POSRES_FC_SC POSRES_FC_SC
80 1 POSRES_FC_BB POSRES_FC_BB POSRES_FC_BB
82 1 POSRES_FC_SC POSRES_FC_SC POSRES_FC_SC
83 1 POSRES_FC_SC POSRES_FC_SC POSRES_FC_SC
86 1 POSRES_FC_SC POSRES_FC_SC POSRES_FC_SC
88 1 POSRES_FC_BB POSRES_FC_BB POSRES_FC_BB
90 1 POSRES_FC_BB POSRES_FC_BB POSRES_FC_BB
92 1 POSRES_FC_BB POSRES_FC_BB POSRES_FC_BB
93 1 POSRES_FC_BB POSRES_FC_BB POSRES_FC_BB
95 1 POSRES_FC_SC POSRES_FC_SC POSRES_FC_SC
97 1 POSRES_FC_BB POSRES_FC_BB POSRES_FC_BB
99 1 POSRES_FC_SC POSRES_FC_SC POSRES_FC_SC
100 1 POSRES_FC_BB POSRES_FC_BB POSRES_FC_BB
102 1 POSRES_FC_SC POSRES_FC_SC POSRES_FC_SC
104 1 POSRES_FC_SC POSRES_FC_SC POSRES_FC_SC
107 1 POSRES_FC_SC POSRES_FC_SC POSRES_FC_SC
108 1 POSRES_FC_BB POSRES_FC_BB POSRES_FC_BB
110 1 POSRES_FC_BB POSRES_FC_BB POSRES_FC_BB
112 1 POSRES_FC_BB POSRES_FC_BB POSRES_FC_BB
113 1 POSRES_FC_BB POSRES_FC_BB POSRES_FC_BB
115 1 POSRES_FC_SC POSRES_FC_SC POSRES_FC_SC
116 1 POSRES_FC_BB POSRES_FC_BB POSRES_FC_BB
118 1 POSRES_FC_SC POSRES_FC_SC POSRES_FC_SC
120 1 POSRES_FC_BB POSRES_FC_BB POSRES_FC_BB
122 1 POSRES_FC_SC POSRES_FC_SC POSRES_FC_SC
124 1 POSRES_FC_SC POSRES_FC_SC POSRES_FC_SC
127 1 POSRES_FC_SC POSRES_FC_SC POSRES_FC_SC
129 1 POSRES_FC_BB POSRES_FC_BB POSRES_FC_BB
131 1 POSRES_FC_BB POSRES_FC_BB POSRES_FC_BB
133 1 POSRES_FC_BB POSRES_FC_BB POSRES_FC_BB
134 1 POSRES_FC_BB POSRES_FC_BB POSRES_FC_BB
136 1 POSRES_FC_SC POSRES_FC_SC POSRES_FC_SC
138 1 POSRES_FC_SC POSRES_FC_SC POSRES_FC_SC
139 1 POSRES_FC_SC POSRES_FC_SC POSRES_FC_SC
140 1 POSRES_FC_SC POSRES_FC_SC POSRES_FC_SC
144 1 POSRES_FC_BB POSRES_FC_BB POSRES_FC_BB
146 1 POSRES_FC_SC POSRES_FC_SC POSRES_FC_SC
148 1 POSRES_FC_BB POSRES_FC_BB POSRES_FC_BB
150 1 POSRES_FC_SC POSRES_FC_SC POSRES_FC_SC
152 1 POSRES_FC_SC POSRES_FC_SC POSRES_FC_SC
155 1 POSRES_FC_SC POSRES_FC_SC POSRES_FC_SC
157 1 POSRES_FC_BB POSRES_FC_BB POSRES_FC_BB
159 1 POSRES_FC_BB POSRES_FC_BB POSRES_FC_BB
161 1 POSRES_FC_BB POSRES_FC_BB POSRES_FC_BB
162 1 POSRES_FC_BB POSRES_FC_BB POSRES_FC_BB
164 1 POSRES_FC_SC POSRES_FC_SC POSRES_FC_SC
165 1 POSRES_FC_BB POSRES_FC_BB POSRES_FC_BB
167 1 POSRES_FC_SC POSRES_FC_SC POSRES_FC_SC
169 1 POSRES_FC_BB POSRES_FC_BB POSRES_FC_BB
171 1 POSRES_FC_SC POSRES_FC_SC POSRES_FC_SC
173 1 POSRES_FC_SC POSRES_FC_SC POSRES_FC_SC
176 1 POSRES_FC_SC POSRES_FC_SC POSRES_FC_SC
178 1 POSRES_FC_BB POSRES_FC_BB POSRES_FC_BB
180 1 POSRES_FC_BB POSRES_FC_BB POSRES_FC_BB
182 1 POSRES_FC_BB POSRES_FC_BB POSRES_FC_BB
183 1 POSRES_FC_BB POSRES_FC_BB POSRES_FC_BB
185 1 POSRES_FC_SC POSRES_FC_SC POSRES_FC_SC
187 1 POSRES_FC_SC POSRES_FC_SC POSRES_FC_SC
188 1 POSRES_FC_SC POSRES_FC_SC POSRES_FC_SC
189 1 POSRES_FC_SC POSRES_FC_SC POSRES_FC_SC
193 1 POSRES_FC_BB POSRES_FC_BB POSRES_FC_BB
195 1 POSRES_FC_SC POSRES_FC_SC POSRES_FC_SC
197 1 POSRES_FC_BB POSRES_FC_BB POSRES_FC_BB
199 1 POSRES_FC_SC POSRES_FC_SC POSRES_FC_SC
201 1 POSRES_FC_SC POSRES_FC_SC POSRES_FC_SC
204 1 POSRES_FC_SC POSRES_FC_SC POSRES_FC_SC
#endif

#ifdef DIHRES
[ dihedral_restraints ]
14 18 16 33 1 60.0 2.5 DIHRES_FC
18 16 33 29 1 -60.0 2.5 DIHRES_FC
16 33 29 19 1 60.0 2.5 DIHRES_FC
33 29 19 14 1 -60.0 2.5 DIHRES_FC
29 19 14 18 1 60.0 2.5 DIHRES_FC
19 14 18 16 1 -60.0 2.5 DIHRES_FC
40 44 42 53 1 -60.0 2.5 DIHRES_FC
44 42 53 49 1 60.0 2.5 DIHRES_FC
42 53 49 45 1 -60.0 2.5 DIHRES_FC
53 49 45 40 1 60.0 2.5 DIHRES_FC
49 45 40 44 1 -60.0 2.5 DIHRES_FC
45 40 44 42 1 60.0 2.5 DIHRES_FC
61 65 63 80 1 60.0 2.5 DIHRES_FC
65 63 80 76 1 -60.0 2.5 DIHRES_FC
63 80 76 66 1 60.0 2.5 DIHRES_FC
80 76 66 61 1 -60.0 2.5 DIHRES_FC
76 66 61 65 1 60.0 2.5 DIHRES_FC
66 61 65 63 1 -60.0 2.5 DIHRES_FC
88 92 90 100 1 60.0 2.5 DIHRES_FC
92 90 100 97 1 -60.0 2.5 DIHRES_FC
90 100 97 93 1 60.0 2.5 DIHRES_FC
100 97 93 88 1 -60.0 2.5 DIHRES_FC
97 93 88 92 1 60.0 2.5 DIHRES_FC
93 88 92 90 1 -60.0 2.5 DIHRES_FC
108 112 110 120 1 60.0 2.5 DIHRES_FC
112 110 120 116 1 -60.0 2.5 DIHRES_FC
110 120 116 113 1 60.0 2.5 DIHRES_FC
120 116 113 108 1 -60.0 2.5 DIHRES_FC
116 113 108 112 1 60.0 2.5 DIHRES_FC
113 108 112 110 1 -60.0 2.5 DIHRES_FC
129 133 131 148 1 60.0 2.5 DIHRES_FC
133 131 148 144 1 -60.0 2.5 DIHRES_FC
131 148 144 134 1 60.0 2.5 DIHRES_FC
148 144 134 129 1 -60.0 2.5 DIHRES_FC
144 134 129 133 1 60.0 2.5 DIHRES_FC
134 129 133 131 1 -60.0 2.5 DIHRES_FC
157 161 159 169 1 60.0 2.5 DIHRES_FC
161 159 169 165 1 -60.0 2.5 DIHRES_FC
159 169 165 162 1 60.0 2.5 DIHRES_FC
169 165 162 157 1 -60.0 2.5 DIHRES_FC
165 162 157 161 1 60.0 2.5 DIHRES_FC
162 157 161 159 1 -60.0 2.5 DIHRES_FC
178 182 180 197 1 60.0 2.5 DIHRES_FC
182 180 197 193 1 -60.0 2.5 DIHRES_FC
180 197 193 183 1 60.0 2.5 DIHRES_FC
197 193 183 178 1 -60.0 2.5 DIHRES_FC
193 183 178 182 1 60.0 2.5 DIHRES_FC
183 178 182 180 1 -60.0 2.5 DIHRES_FC
#endif
