frame t= 0.000
   30
   17ASN      C    1   2.854   1.175   3.395
   17ASN     CB    2   2.694   1.434   3.248
    1BGLCN   C1    3   2.684   1.703   3.438
    1BGLCN   C2    4   2.304   1.551   3.429
    1BGLCN   C3    5   2.400   1.831   3.507
    1BGLCN   C4    6   2.756   1.825   3.617
    2AFUC    C1    7   2.914   1.880   3.853
    2AFUC    C2    8   2.736   1.704   3.978
    2AFUC    C4    9   3.031   1.823   4.035
    3BGLCN   C1   10   2.623   2.125   3.396
    3BGLCN   C2   11   2.569   2.208   3.776
    3BGLCN   C3   12   2.506   2.395   3.515
    3BGLCN   C4   13   2.713   2.209   3.219
    4BMAN    C1   14   2.406   2.589   3.325
    4BMAN    C2   15   2.466   2.695   3.097
    4BMAN    C4   16   2.262   2.738   3.377
    5AMAN    C1   17   2.049   2.473   3.534
    5AMAN    C2   18   2.115   2.403   3.784
    5AMAN    C4   19   2.030   2.243   3.496
    6BGLCN   C1   20   2.006   2.591   4.023
    6BGLCN   C2   21   1.700   2.576   3.760
    6BGLCN   C3   22   1.714   2.728   4.017
    6BGLCN   C4   23   2.049   2.636   4.236
    7AMAN    C1   24   2.666   2.869   3.022
    7AMAN    C2   25   2.594   3.047   2.856
    7AMAN    C4   26   2.783   2.768   2.848
    8BGLCN   C1   27   2.664   3.329   3.028
    8BGLCN   C2   28   3.048   3.171   3.019
    8BGLCN   C3   29   2.946   3.391   3.182
    8BGLCN   C4   30   2.578   3.524   3.029
   6.72672   6.72672   6.89887
