CG beads generated from JSON
   30
    1   BB    C    1   6.339   0.630  25.238
    1  SC1   CB    2   6.224   0.872  25.367
    2  BG1   C1    3   5.946   1.068  25.447
    2  BG2   C2    4   6.214   1.076  25.822
    2  BG3   C3    5   5.958   1.273  25.713
    2  BG4   C4    6   5.791   1.242  25.413
    3  AF1   C1    7   5.906   1.203  25.076
    3  AF2   C3    8   5.936   1.492  25.078
    3  AF3   C4    9   6.056   1.232  24.934
    4  BG1   C1   10   5.737   1.503  25.682
    4  BG2   C2   11   5.484   1.416  25.306
    4  BG3   C3   12   5.500   1.686  25.504
    4  BG4   C4   13   5.731   1.678  25.811
    5  BM1   C1   14   5.414   1.933  25.687
    5  BM2   C3   15   5.507   2.081  25.863
    5  BM3   C4   16   5.226   2.057  25.680
    6  AM1   C1   17   5.249   2.015  25.271
    6  AM2   C3   18   5.191   1.754  25.177
    6  AM3   C4   19   5.431   2.032  25.158
    7  BG1   C1   20   4.832   1.794  25.155
    7  BG2   C2   21   4.963   2.234  25.119
    7  BG3   C3   22   4.667   2.068  25.057
    7  BG4   C4   23   4.635   1.708  25.135
    8  AM1   C1   24   5.457   2.077  26.175
    8  AM2   C3   25   5.409   2.330  26.282
    8  AM3   C4   26   5.674   2.067  26.245
    9  BG1   C1   27   5.075   2.330  26.309
    9  BG2   C2   28   5.192   1.946  26.534
    9  BG3   C3   29   4.920   2.153  26.547
    9  BG4   C4   30   4.889   2.440  26.316
   0.00000   0.00000   0.00000
