Structure written by Python
30
    1BB       C    1   6.331   0.630  25.240
    2SC1     CB    2   6.224   0.872  25.367
    3BG1     C1    3   5.920   1.040  25.478
    4BG2     C2    4   6.205   1.082  25.803
    5BG3     C3    5   5.937   1.234  25.707
    6BG4     C4    6   5.797   1.207  25.361
    7AF1     C1    7   5.897   1.211  25.100
    8AF2     C3    8   5.939   1.472  25.077
    9AF3     C4    9   6.086   1.163  24.965
   10BG1     C1   10   5.766   1.528  25.650
   11BG2     C2   11   5.490   1.417  25.328
   12BG3     C3   12   5.541   1.685  25.502
   13BG4     C4   13   5.719   1.645  25.854
   14BM1     C1   14   5.385   1.904  25.715
   15BM2     C3   15   5.493   2.045  25.881
   16BM3     C4   16   5.241   2.082  25.657
   17AM1     C1   17   5.249   2.005  25.294
   18AM2     C3   18   5.199   1.752  25.214
   19AM3     C4   19   5.420   2.037  25.130
   20BG1     C1   20   4.821   1.806  25.202
   21BG2     C2   21   4.957   2.213  25.113
   22BG3     C3   22   4.674   2.052  25.099
   23BG4     C4   23   4.653   1.675  25.094
   24AM1     C1   24   5.454   2.085  26.151
   25AM2     C3   25   5.413   2.331  26.240
   26AM3     C4   26   5.662   2.063  26.278
   27BG1     C1   27   5.054   2.299  26.276
   28BG2     C2   28   5.188   1.968  26.531
   29BG3     C3   29   4.920   2.148  26.502
   30BG4     C4   30   4.917   2.486  26.333
   0.00000   0.00000   0.00000
