Structure written by Python
30
    1BB       C    1   2.854   1.175   3.395
    2SC1     CB    2   2.694   1.434   3.248
    3BG1     C1    3   2.684   1.703   3.438
    4BG2     C2    4   2.304   1.551   3.429
    5BG3     C3    5   2.400   1.831   3.507
    6BG4     C4    6   2.756   1.825   3.617
    7AF1     C1    7   2.914   1.880   3.853
    8AF2     C2    8   2.736   1.704   3.978
    9AF3     C4    9   3.031   1.823   4.035
   10BG1     C1   10   2.623   2.125   3.396
   11BG2     C2   11   2.569   2.208   3.776
   12BG3     C3   12   2.506   2.395   3.515
   13BG4     C4   13   2.713   2.209   3.219
   14BM1     C1   14   2.406   2.589   3.325
   15BM2     C2   15   2.466   2.695   3.097
   16BM3     C4   16   2.262   2.738   3.377
   17AM1     C1   17   2.049   2.473   3.534
   18AM2     C2   18   2.115   2.403   3.784
   19AM3     C4   19   2.030   2.243   3.496
   20BG1     C1   20   2.006   2.591   4.023
   21BG2     C2   21   1.700   2.576   3.760
   22BG3     C3   22   1.714   2.728   4.017
   23BG4     C4   23   2.049   2.636   4.236
   24AM1     C1   24   2.666   2.869   3.022
   25AM2     C2   25   2.594   3.047   2.856
   26AM3     C4   26   2.783   2.768   2.848
   27BG1     C1   27   2.664   3.329   3.028
   28BG2     C2   28   3.048   3.171   3.019
   29BG3     C3   29   2.946   3.391   3.182
   30BG4     C4   30   2.578   3.524   3.029
   0.00000   0.00000   0.00000
