;;; Topology system in Martini 3

#include "/home/anacleto/projects/github/bayesian_potentials/examples/example_1_map_aa_to_cg/results/../ff_files/martini_v3.0.0.itp"
#include "/home/anacleto/projects/github/bayesian_potentials/examples/example_1_map_aa_to_cg/results/../ff_files/martini_v3.0.0_ions_v1.itp"
#include "/home/anacleto/projects/github/bayesian_potentials/examples/example_1_map_aa_to_cg/results/../ff_files/martini_v3.0.0_solvents_v1.itp"
#include "cg.itp"

[ system ]
; Name
molecule in aqueous solution

[ molecules ]
; Compound        #mols
molecule               1
