CG beads generated from JSON
   30
    1   BB    C    1   6.331   0.630  25.240
    1  SC1   CB    2   6.224   0.872  25.367
    2  BG1   C1    3   5.920   1.040  25.478
    2  BG2   C2    4   6.205   1.082  25.803
    2  BG3   C3    5   5.937   1.234  25.707
    2  BG4   C4    6   5.787   1.219  25.391
    3  AF1   C1    7   5.897   1.211  25.100
    3  AF2   C3    8   5.939   1.472  25.077
    3  AF3   C4    9   6.086   1.163  24.965
    4  BG1   C1   10   5.766   1.528  25.650
    4  BG2   C2   11   5.490   1.417  25.328
    4  BG3   C3   12   5.541   1.685  25.502
    4  BG4   C4   13   5.705   1.669  25.834
    5  BM1   C1   14   5.385   1.904  25.715
    5  BM2   C3   15   5.493   2.045  25.881
    5  BM3   C4   16   5.241   2.082  25.657
    6  AM1   C1   17   5.249   2.005  25.294
    6  AM2   C3   18   5.199   1.752  25.214
    6  AM3   C4   19   5.420   2.037  25.130
    7  BG1   C1   20   4.821   1.806  25.202
    7  BG2   C2   21   4.957   2.213  25.113
    7  BG3   C3   22   4.674   2.052  25.099
    7  BG4   C4   23   4.632   1.702  25.100
    8  AM1   C1   24   5.454   2.085  26.151
    8  AM2   C3   25   5.413   2.331  26.240
    8  AM3   C4   26   5.662   2.063  26.278
    9  BG1   C1   27   5.054   2.299  26.276
    9  BG2   C2   28   5.188   1.968  26.531
    9  BG3   C3   29   4.920   2.148  26.502
    9  BG4   C4   30   4.894   2.462  26.344
   0.00000   0.00000   0.00000
