[ System ]
   1    2    3    4    5    6    7    8    9   10   11   12   13   14   15
  16   17   18   19   20   21   22   23   24   25   26   27   28   29   30
[ Protein ]
   1    2
[ Protein-H ]
   1    2
[ C-alpha ]
[ Backbone ]
[ MainChain ]
   1
[ MainChain+Cb ]
   1    2
[ MainChain+H ]
   1
[ SideChain ]
   2
[ SideChain-H ]
   2
[ Prot-Masses ]
   1    2
[ non-Protein ]
   3    4    5    6    7    8    9   10   11   12   13   14   15   16   17
  18   19   20   21   22   23   24   25   26   27   28   29   30
[ Other ]
   3    4    5    6    7    8    9   10   11   12   13   14   15   16   17
  18   19   20   21   22   23   24   25   26   27   28   29   30
[ BG ]
   3    4    5    6   10   11   12   13   20   21   22   23   27   28   29
  30
[ AF ]
   7    8    9
[ BM ]
  14   15   16
[ AM ]
  17   18   19   24   25   26
[ System ]
   1    2    3    4    5    6    7    8    9   10   11   12   13   14   15
  16   17   18   19   20   21   22   23   24   25   26   27   28   29   30
