FA2-ASN Glycan in aqueous solution
  686
    1ASN      O    1   2.663   1.460   0.970
    1ASN     CB    2   2.560   1.665   1.118
    21BG     C1    3   2.776   1.839   1.309
    21BG     C3    4   2.657   2.025   1.475
    21BG     C2    5   2.447   2.082   1.213
    21BG     C4    6   2.840   1.772   1.474
    32AF     C1    7   2.649   1.663   1.631
    32AF     C2    8   2.433   1.739   1.525
    32AF     C4    9   2.601   1.436   1.705
    43BG     C1   10   2.656   2.058   1.815
    43BG     C2   11   2.613   1.649   2.008
    43BG     C3   12   2.676   1.959   2.098
    43BG     C4   13   2.811   2.270   1.860
    54BM     C1   14   2.443   2.274   2.010
    54BM     C2   15   2.234   2.414   1.896
    54BM     C4   16   2.378   2.227   2.207
    65AM     C1   17   2.608   2.069   2.478
    65AM     C2   18   2.820   2.028   2.422
    65AM     C4   19   2.584   1.817   2.576
    76BG     C1   20   3.002   2.210   2.542
    76BG     C2   21   2.797   2.223   2.863
    76BG     C3   22   3.115   2.244   2.806
    76BG     C4   23   3.191   2.132   2.496
    87AM     C1   24   2.102   2.635   1.724
    87AM     C2   25   1.808   2.677   1.750
    87AM     C4   26   2.063   2.633   1.486
    98BG     C1   27   1.641   2.955   1.963
    98BG     C2   28   1.600   3.334   1.750
    98BG     C3   29   1.741   3.236   2.031
    98BG     C4   30   1.590   2.932   2.196
   10W        W   31   3.761   3.871   1.436
   11W        W   32   2.272   2.683   0.229
   12W        W   33   0.067   3.850   2.794
   13W        W   34   0.843   3.070   4.066
   14W        W   35   2.085   3.960   0.750
   15W        W   36   0.405   0.865   0.293
   16W        W   37   4.066   1.700   1.096
   17W        W   38   4.250   0.318   4.189
   18W        W   39   2.186   3.203   0.269
   19W        W   40   4.176   3.854   0.817
   20W        W   41   3.022   3.860   2.543
   21W        W   42   0.592   3.353   2.504
   22W        W   43   1.405   1.270   2.518
   23W        W   44   2.835   3.737   3.532
   24W        W   45   0.568   0.922   1.784
   25W        W   46   4.164   3.719   3.655
   26W        W   47   1.187   2.236   4.048
   27W        W   48   3.063   2.107   3.202
   28W        W   49   1.386   1.072   3.310
   29W        W   50   1.980   1.445   0.369
   30W        W   51   0.415   4.090   3.069
   31W        W   52   1.959   3.721   3.770
   32W        W   53   0.932   1.205   1.483
   33W        W   54   0.765   2.078   0.024
   34W        W   55   2.467   3.408   3.715
   35W        W   56   2.764   1.219   2.048
   36W        W   57   4.216   3.171   1.208
   37W        W   58   2.141   4.166   3.066
   38W        W   59   3.765   3.768   0.115
   39W        W   60   1.153   2.112   1.344
   40W        W   61   0.400   1.215   0.917
   41W        W   62   2.091   1.513   3.774
   42W        W   63   0.049   1.989   2.553
   43W        W   64   0.392   0.355   0.150
   44W        W   65   1.679   0.733   3.606
   45W        W   66   4.257   1.272   2.375
   46W        W   67   3.863   2.455   0.822
   47W        W   68   3.213   1.368   3.716
   48W        W   69   2.873   3.393   2.213
   49W        W   70   1.225   4.178   0.618
   50W        W   71   2.385   2.907   1.533
   51W        W   72   1.857   1.119   0.786
   52W        W   73   4.217   3.903   4.150
   53W        W   74   1.557   2.052   3.669
   54W        W   75   4.003   0.833   2.318
   55W        W   76   2.313   3.965   1.995
   56W        W   77   2.154   2.899   0.682
   57W        W   78   1.320   0.382   1.958
   58W        W   79   3.749   1.273   3.740
   59W        W   80   3.256   3.945   1.575
   60W        W   81   2.785   3.030   3.882
   61W        W   82   4.149   2.914   1.639
   62W        W   83   2.322   0.564   1.783
   63W        W   84   0.087   0.332   1.787
   64W        W   85   1.041   3.913   1.581
   65W        W   86   0.748   1.840   1.188
   66W        W   87   4.066   3.973   1.833
   67W        W   88   0.625   3.102   0.706
   68W        W   89   2.519   2.409   1.574
   69W        W   90   0.338   2.963   4.114
   70W        W   91   0.285   2.144   4.162
   71W        W   92   2.520   0.135   3.820
   72W        W   93   4.136   2.054   3.930
   73W        W   94   0.508   2.478   2.868
   74W        W   95   0.666   1.915   2.063
   75W        W   96   1.265   0.884   0.202
   76W        W   97   1.761   2.594   0.805
   77W        W   98   0.751   3.023   1.570
   78W        W   99   0.795   3.895   3.655
   79W        W  100   1.471   1.574   3.482
   80W        W  101   1.454   0.812   1.681
   81W        W  102   3.232   2.552   2.522
   82W        W  103   3.496   2.336   0.450
   83W        W  104   0.463   0.321   1.000
   84W        W  105   3.203   3.056   1.308
   85W        W  106   3.668   2.044   3.734
   86W        W  107   2.947   0.938   3.666
   87W        W  108   2.538   4.260   4.298
   88W        W  109   3.743   1.584   0.206
   89W        W  110   2.217   0.697   2.653
   90W        W  111   0.833   2.316   1.011
   91W        W  112   1.249   3.985   0.126
   92W        W  113   2.806   4.080   1.856
   93W        W  114   1.460   4.237   1.719
   94W        W  115   2.507   1.818   3.926
   95W        W  116   1.890   1.224   3.374
   96W        W  117   0.352   3.757   3.890
   97W        W  118   2.983   1.724   4.115
   98W        W  119   1.790   3.193   4.209
   99W        W  120   0.541   3.745   1.231
  100W        W  121   3.714   3.162   1.448
  101W        W  122   3.946   2.910   0.606
  102W        W  123   1.225   3.641   0.517
  103W        W  124   3.433   1.833   0.522
  104W        W  125   4.166   3.125   2.882
  105W        W  126   2.661   3.603   1.794
  106W        W  127   1.901   0.303   2.924
  107W        W  128   3.456   4.009   2.839
  108W        W  129   3.867   3.509   1.094
  109W        W  130   0.177   4.196   2.052
  110W        W  131   3.335   1.645   1.461
  111W        W  132   4.244   3.710   0.322
  112W        W  133   2.616   3.761   0.038
  113W        W  134   0.056   4.227   0.253
  114W        W  135   2.094   4.218   1.213
  115W        W  136   0.255   1.610   4.296
  116W        W  137   2.699   0.517   3.539
  117W        W  138   2.814   0.219   3.092
  118W        W  139   1.182   0.838   3.719
  119W        W  140   3.046   2.601   3.930
  120W        W  141   3.939   2.096   1.937
  121W        W  142   0.670   3.835   2.704
  122W        W  143   1.699   2.173   4.155
  123W        W  144   3.220   2.555   1.428
  124W        W  145   2.296   0.282   2.233
  125W        W  146   2.908   3.518   3.989
  126W        W  147   3.564   0.607   0.580
  127W        W  148   2.703   3.620   3.053
  128W        W  149   1.760   2.891   0.338
  129W        W  150   4.287   2.462   1.818
  130W        W  151   1.335   2.185   0.297
  131W        W  152   0.111   1.166   4.097
  132W        W  153   3.266   2.549   3.050
  133W        W  154   2.090   1.747   4.238
  134W        W  155   0.251   2.097   3.616
  135W        W  156   2.643   0.788   1.089
  136W        W  157   0.306   3.673   3.393
  137W        W  158   3.168   1.141   1.711
  138W        W  159   0.343   3.449   2.932
  139W        W  160   3.727   2.075   0.002
  140W        W  161   1.392   2.948   1.637
  141W        W  162   3.689   0.456   2.384
  142W        W  163   2.308   3.287   3.224
  143W        W  164   0.031   0.315   1.260
  144W        W  165   0.819   0.657   2.726
  145W        W  166   0.863   0.889   3.224
  146W        W  167   0.143   3.274   3.723
  147W        W  168   2.954   4.023   3.980
  148W        W  169   1.934   3.069   1.682
  149W        W  170   1.630   0.832   4.113
  150W        W  171   4.152   2.473   4.198
  151W        W  172   4.021   0.555   0.839
  152W        W  173   0.589   1.748   3.016
  153W        W  174   0.821   2.646   3.295
  154W        W  175   4.043   1.106   1.640
  155W        W  176   1.261   2.128   0.815
  156W        W  177   3.811   0.331   2.979
  157W        W  178   3.814   2.139   1.200
  158W        W  179   2.686   1.383   3.697
  159W        W  180   1.659   4.286   0.055
  160W        W  181   0.367   1.948   0.335
  161W        W  182   3.298   3.040   3.223
  162W        W  183   2.954   3.821   0.653
  163W        W  184   1.889   4.270   2.068
  164W        W  185   3.538   2.254   2.216
  165W        W  186   2.470   3.903   3.850
  166W        W  187   3.633   4.246   2.418
  167W        W  188   1.618   1.673   4.007
  168W        W  189   3.395   2.944   1.786
  169W        W  190   0.532   0.279   2.024
  170W        W  191   0.531   1.279   3.281
  171W        W  192   0.880   0.293   0.698
  172W        W  193   3.844   3.221   2.478
  173W        W  194   2.089   4.046   4.150
  174W        W  195   0.073   2.508   0.631
  175W        W  196   3.148   3.106   4.237
  176W        W  197   3.670   3.743   2.255
  177W        W  198   0.893   0.094   0.224
  178W        W  199   2.309   3.002   4.091
  179W        W  200   3.170   4.240   2.179
  180W        W  201   0.437   1.807   1.605
  181W        W  202   0.500   0.264   3.299
  182W        W  203   0.332   2.707   1.481
  183W        W  204   0.083   2.825   0.253
  184W        W  205   1.655   4.116   3.858
  185W        W  206   1.214   1.708   0.486
  186W        W  207   3.703   3.304   3.044
  187W        W  208   3.691   3.457   3.596
  188W        W  209   2.977   1.600   3.261
  189W        W  210   0.967   0.641   1.662
  190W        W  211   2.553   3.074   0.946
  191W        W  212   3.573   1.719   0.992
  192W        W  213   3.424   0.947   3.496
  193W        W  214   1.533   3.437   3.824
  194W        W  215   1.556   1.205   3.797
  195W        W  216   3.585   3.557   1.779
  196W        W  217   0.638   4.184   2.336
  197W        W  218   0.186   2.107   3.069
  198W        W  219   1.593   1.905   1.150
  199W        W  220   0.148   1.633   3.281
  200W        W  221   2.266   3.762   3.375
  201W        W  222   3.618   0.470   3.440
  202W        W  223   1.154   2.992   0.205
  203W        W  224   1.189   1.783   4.278
  204W        W  225   3.433   3.570   4.058
  205W        W  226   4.254   2.058   1.486
  206W        W  227   4.263   2.147   0.973
  207W        W  228   0.415   2.149   0.774
  208W        W  229   3.164   0.143   1.683
  209W        W  230   1.696   0.333   3.945
  210W        W  231   1.041   1.752   3.252
  211W        W  232   0.874   2.848   1.082
  212W        W  233   0.692   1.645   4.029
  213W        W  234   0.457   1.120   2.299
  214W        W  235   1.096   1.306   4.054
  215W        W  236   3.129   1.363   2.677
  216W        W  237   0.267   2.404   2.263
  217W        W  238   0.071   0.199   3.007
  218W        W  239   1.350   1.201   0.609
  219W        W  240   3.369   1.765   2.459
  220W        W  241   2.767   0.284   1.986
  221W        W  242   1.633   4.115   0.946
  222W        W  243   3.904   1.434   0.694
  223W        W  244   2.166   0.516   3.725
  224W        W  245   3.412   1.127   4.155
  225W        W  246   0.175   0.755   1.040
  226W        W  247   2.238   2.238   4.254
  227W        W  248   2.668   0.709   0.544
  228W        W  249   0.490   2.428   0.308
  229W        W  250   0.958   2.166   2.933
  230W        W  251   2.752   0.432   1.490
  231W        W  252   0.642   2.168   3.319
  232W        W  253   0.353   3.373   2.065
  233W        W  254   2.115   3.728   0.287
  234W        W  255   2.202   2.371   0.685
  235W        W  256   0.292   2.872   1.962
  236W        W  257   4.169   0.399   2.564
  237W        W  258   1.690   4.131   2.790
  238W        W  259   0.221   3.746   1.773
  239W        W  260   2.543   0.850   3.960
  240W        W  261   4.179   0.733   3.897
  241W        W  262   2.491   2.557   3.922
  242W        W  263   4.136   2.975   4.064
  243W        W  264   4.228   0.774   0.152
  244W        W  265   3.545   2.200   2.722
  245W        W  266   3.744   0.991   0.909
  246W        W  267   0.618   4.073   1.827
  247W        W  268   3.065   2.912   2.209
  248W        W  269   3.758   1.337   1.288
  249W        W  270   3.591   2.801   2.260
  250W        W  271   1.255   4.106   3.541
  251W        W  272   2.616   4.077   2.840
  252W        W  273   0.771   4.100   0.862
  253W        W  274   0.531   1.140   3.773
  254W        W  275   2.948   3.396   0.951
  255W        W  276   1.318   3.252   2.057
  256W        W  277   1.849   2.386   0.296
  257W        W  278   3.948   0.856   3.461
  258W        W  279   2.782   2.743   1.252
  259W        W  280   1.761   0.981   0.301
  260W        W  281   3.720   1.078   0.373
  261W        W  282   4.045   2.675   3.661
  262W        W  283   1.248   0.901   2.845
  263W        W  284   2.882   1.631   2.329
  264W        W  285   3.573   0.879   1.529
  265W        W  286   1.210   3.424   1.562
  266W        W  287   0.396   3.832   0.094
  267W        W  288   4.288   1.546   1.530
  268W        W  289   3.188   4.035   1.065
  269W        W  290   0.728   2.113   3.823
  270W        W  291   2.586   1.927   3.124
  271W        W  292   0.921   1.176   0.945
  272W        W  293   0.170   4.194   1.531
  273W        W  294   1.180   0.806   1.217
  274W        W  295   3.031   4.024   3.143
  275W        W  296   2.222   0.163   0.783
  276W        W  297   1.801   3.499   3.338
  277W        W  298   0.147   0.792   1.551
  278W        W  299   3.189   2.497   1.934
  279W        W  300   2.768   2.205   4.156
  280W        W  301   4.024   2.276   2.889
  281W        W  302   2.640   1.476   2.860
  282W        W  303   0.373   0.728   4.084
  283W        W  304   2.366   1.480   3.317
  284W        W  305   3.854   3.527   0.583
  285W        W  306   4.100   4.013   2.363
  286W        W  307   1.958   3.565   1.877
  287W        W  308   0.082   1.129   3.102
  288W        W  309   1.133   3.157   0.691
  289W        W  310   4.157   0.376   3.450
  290W        W  311   3.398   3.297   2.193
  291W        W  312   3.510   1.793   1.967
  292W        W  313   0.820   3.380   0.300
  293W        W  314   3.845   2.731   2.708
  294W        W  315   0.408   0.452   2.499
  295W        W  316   2.094   3.136   1.140
  296W        W  317   1.244   0.720   2.345
  297W        W  318   3.076   0.428   0.294
  298W        W  319   3.040   2.909   0.833
  299W        W  320   0.786   3.578   4.129
  300W        W  321   0.318   2.549   3.347
  301W        W  322   1.473   1.986   3.150
  302W        W  323   3.722   2.651   1.314
  303W        W  324   2.425   0.964   3.467
  304W        W  325   4.240   4.055   3.271
  305W        W  326   2.803   4.236   1.373
  306W        W  327   0.628   2.907   0.218
  307W        W  328   1.726   0.150   0.573
  308W        W  329   0.189   1.519   2.769
  309W        W  330   1.679   3.100   0.809
  310W        W  331   0.481   2.309   1.786
  311W        W  332   2.923   1.130   0.785
  312W        W  333   3.376   2.537   0.922
  313W        W  334   1.469   3.742   1.874
  314W        W  335   2.079   3.435   0.723
  315W        W  336   4.186   1.344   0.253
  316W        W  337   0.294   3.312   0.387
  317W        W  338   0.811   3.912   0.370
  318W        W  339   2.862   1.365   1.382
  319W        W  340   0.296   1.614   2.248
  320W        W  341   2.572   3.470   0.534
  321W        W  342   2.985   4.173   0.232
  322W        W  343   0.899   4.186   3.185
  323W        W  344   2.315   0.291   3.287
  324W        W  345   4.263   1.228   3.603
  325W        W  346   4.180   1.916   0.172
  326W        W  347   3.280   2.162   4.066
  327W        W  348   3.192   0.949   0.349
  328W        W  349   1.115   1.779   3.773
  329W        W  350   1.309   0.342   3.600
  330W        W  351   0.269   4.131   1.033
  331W        W  352   4.130   2.811   2.181
  332W        W  353   0.644   0.829   1.261
  333W        W  354   1.527   2.552   3.813
  334W        W  355   4.010   0.326   0.368
  335W        W  356   2.405   1.328   4.171
  336W        W  357   0.987   0.400   3.196
  337W        W  358   0.428   2.632   0.966
  338W        W  359   2.663   1.018   2.629
  339W        W  360   1.447   1.235   1.113
  340W        W  361   3.062   1.698   1.033
  341W        W  362   0.680   3.401   3.667
  342W        W  363   4.196   4.241   3.768
  343W        W  364   4.077   1.593   1.990
  344W        W  365   3.399   3.521   2.666
  345W        W  366   1.113   2.225   3.486
  346W        W  367   3.597   4.153   1.892
  347W        W  368   1.266   3.442   4.296
  348W        W  369   0.386   0.650   3.006
  349W        W  370   3.873   4.277   4.277
  350W        W  371   3.765   3.943   3.882
  351W        W  372   3.228   1.468   0.191
  352W        W  373   3.728   3.815   3.229
  353W        W  374   3.865   1.844   2.407
  354W        W  375   3.636   0.825   3.048
  355W        W  376   1.328   2.643   0.551
  356W        W  377   0.994   3.010   2.497
  357W        W  378   0.771   1.617   0.242
  358W        W  379   3.823   1.769   1.555
  359W        W  380   3.126   0.089   0.689
  360W        W  381   3.051   3.245   0.442
  361W        W  382   3.230   3.254   3.699
  362W        W  383   0.126   0.854   2.615
  363W        W  384   1.917   4.014   1.629
  364W        W  385   2.782   2.229   3.635
  365W        W  386   2.945   0.220   4.099
  366W        W  387   3.952   3.464   4.045
  367W        W  388   0.059   1.690   0.651
  368W        W  389   0.989   1.314   3.541
  369W        W  390   2.759   2.727   0.031
  370W        W  391   0.831   2.523   1.471
  371W        W  392   1.748   1.015   2.919
  372W        W  393   4.017   0.165   2.111
  373W        W  394   0.787   4.082   4.130
  374W        W  395   4.031   1.703   3.569
  375W        W  396   2.977   0.065   3.565
  376W        W  397   2.571   4.151   3.364
  377W        W  398   3.564   0.031   1.304
  378W        W  399   4.161   3.546   3.165
  379W        W  400   0.160   1.221   1.899
  380W        W  401   0.447   0.065   0.557
  381W        W  402   0.413   1.277   1.430
  382W        W  403   2.417   1.549   0.604
  383W        W  404   0.061   2.677   2.650
  384W        W  405   0.193   4.290   2.555
  385W        W  406   4.251   1.009   0.639
  386W        W  407   0.952   1.735   1.651
  387W        W  408   1.996   3.194   3.726
  388W        W  409   3.836   3.153   1.967
  389W        W  410   4.054   4.187   1.183
  390W        W  411   1.691   3.734   4.240
  391W        W  412   3.625   1.341   1.783
  392W        W  413   3.087   2.038   2.107
  393W        W  414   3.279   1.348   2.171
  394W        W  415   3.332   2.619   0.045
  395W        W  416   2.730   1.241   0.307
  396W        W  417   0.744   0.707   2.204
  397W        W  418   0.232   3.480   0.895
  398W        W  419   0.927   0.370   1.211
  399W        W  420   1.799   0.252   3.431
  400W        W  421   2.161   1.954   0.406
  401W        W  422   3.887   3.677   2.727
  402W        W  423   2.667   3.253   0.063
  403W        W  424   1.738   0.482   0.163
  404W        W  425   3.326   3.843   3.619
  405W        W  426   1.818   0.487   2.076
  406W        W  427   3.711   2.702   3.213
  407W        W  428   3.060   2.081   1.608
  408W        W  429   2.463   3.572   1.044
  409W        W  430   2.227   3.709   2.855
  410W        W  431   1.019   2.225   1.838
  411W        W  432   0.779   3.705   2.163
  412W        W  433   1.218   0.027   4.019
  413W        W  434   3.369   0.469   2.778
  414W        W  435   1.742   2.096   0.686
  415W        W  436   2.417   2.909   3.556
  416W        W  437   1.680   3.413   0.373
  417W        W  438   3.195   0.429   2.285
  418W        W  439   2.384   0.071   1.678
  419W        W  440   1.923   2.671   4.154
  420W        W  441   3.668   3.940   0.918
  421W        W  442   1.036   1.542   2.202
  422W        W  443   1.165   1.643   0.987
  423W        W  444   1.421   0.363   1.422
  424W        W  445   3.076   0.915   2.328
  425W        W  446   3.702   0.148   0.817
  426W        W  447   0.591   1.216   4.277
  427W        W  448   0.995   3.429   2.819
  428W        W  449   0.619   0.757   0.748
  429W        W  450   3.127   0.599   3.248
  430W        W  451   1.063   3.085   3.572
  431W        W  452   0.346   3.871   0.597
  432W        W  453   2.871   3.728   1.332
  433W        W  454   3.507   1.653   4.036
  434W        W  455   1.738   2.809   1.277
  435W        W  456   1.247   0.498   4.167
  436W        W  457   1.496   2.442   1.556
  437W        W  458   0.680   0.157   2.804
  438W        W  459   3.541   0.935   2.561
  439W        W  460   1.296   0.364   0.381
  440W        W  461   0.530   1.098   2.810
  441W        W  462   2.730   3.248   1.396
  442W        W  463   1.893   0.241   1.601
  443W        W  464   0.247   3.244   1.604
  444W        W  465   0.273   0.344   3.764
  445W        W  466   3.533   0.879   2.049
  446W        W  467   2.519   3.996   0.469
  447W        W  468   3.612   2.172   3.228
  448W        W  469   2.267   3.425   1.507
  449W        W  470   0.183   0.715   2.107
  450W        W  471   1.686   3.358   1.343
  451W        W  472   3.945   1.792   3.053
  452W        W  473   0.240   3.067   3.265
  453W        W  474   0.977   2.517   0.162
  454W        W  475   1.673   1.823   0.239
  455W        W  476   1.810   0.299   1.073
  456W        W  477   3.249   3.554   3.197
  457W        W  478   3.767   1.301   2.272
  458W        W  479   1.105   4.130   2.090
  459W        W  480   0.971   0.134   1.685
  460W        W  481   3.383   1.344   0.671
  461W        W  482   0.852   1.123   0.428
  462W        W  483   0.014   3.740   1.299
  463W        W  484   2.056   2.041   3.804
  464W        W  485   2.196   0.486   0.386
  465W        W  486   2.825   0.508   2.627
  466W        W  487   3.557   0.378   1.893
  467W        W  488   3.057   0.729   4.169
  468W        W  489   3.543   2.207   1.645
  469W        W  490   4.225   1.193   1.143
  470W        W  491   0.368   1.350   0.429
  471W        W  492   3.483   2.809   3.644
  472W        W  493   4.000   0.700   1.319
  473W        W  494   0.560   2.037   2.575
  474W        W  495   1.109   4.180   2.680
  475W        W  496   2.638   2.943   0.472
  476W        W  497   1.694   0.777   1.179
  477W        W  498   2.665   2.544   0.795
  478W        W  499   3.436   0.028   3.758
  479W        W  500   0.747   0.335   4.087
  480W        W  501   2.578   0.681   3.049
  481W        W  502   2.404   0.238   2.769
  482W        W  503   0.117   2.999   0.765
  483W        W  504   2.058   1.005   3.811
  484W        W  505   2.397   3.197   1.958
  485W        W  506   1.684   0.619   2.589
  486W        W  507   1.122   1.727   2.710
  487W        W  508   0.638   1.665   0.730
  488W        W  509   0.131   1.991   1.978
  489W        W  510   4.164   0.677   3.027
  490W        W  511   2.614   0.727   2.191
  491W        W  512   1.901   2.315   1.217
  492W        W  513   2.772   2.416   2.252
  493W        W  514   0.511   0.403   1.520
  494W        W  515   3.101   0.628   0.810
  495W        W  516   2.033   0.713   3.231
  496W        W  517   3.548   1.643   3.437
  497W        W  518   2.175   4.138   2.520
  498W        W  519   1.213   3.808   3.950
  499W        W  520   1.218   4.238   1.231
  500W        W  521   0.621   1.705   3.533
  501W        W  522   2.212   3.504   4.143
  502W        W  523   0.171   0.516   0.582
  503W        W  524   0.774   2.678   1.981
  504W        W  525   1.451   1.368   0.135
  505W        W  526   3.555   0.551   1.111
  506W        W  527   2.424   1.440   2.385
  507W        W  528   4.231   2.642   1.147
  508W        W  529   2.691   0.291   0.959
  509W        W  530   3.108   0.768   1.324
  510W        W  531   0.739   3.590   0.760
  511W        W  532   0.672   1.529   2.565
  512W        W  533   4.057   3.236   0.212
  513W        W  534   4.086   3.457   1.653
  514W        W  535   1.652   0.650   0.670
  515W        W  536   2.114   4.205   3.626
  516W        W  537   1.141   3.773   1.029
  517W        W  538   0.854   2.106   0.517
  518W        W  539   3.903   4.107   0.473
  519W        W  540   1.400   0.080   3.135
  520W        W  541   0.764   3.685   3.190
  521W        W  542   3.430   0.325   4.167
  522W        W  543   2.824   1.120   3.193
  523W        W  544   1.474   1.466   2.992
  524W        W  545   1.453   2.609   0.028
  525W        W  546   3.989   2.353   0.353
  526W        W  547   0.873   3.354   1.184
  527W        W  548   1.664   3.935   0.446
  528W        W  549   4.026   3.112   3.408
  529W        W  550   4.148   3.544   2.154
  530W        W  551   1.923   1.774   3.361
  531W        W  552   3.646   0.754   3.896
  532W        W  553   3.115   3.666   0.156
  533W        W  554   1.309   3.087   1.159
  534W        W  555   3.026   2.561   0.445
  535W        W  556   1.994   3.723   1.190
  536W        W  557   2.036   2.555   3.672
  537W        W  558   3.113   0.892   2.845
  538W        W  559   0.812   3.185   2.051
  539W        W  560   3.408   3.006   2.707
  540W        W  561   0.701   0.628   3.648
  541W        W  562   2.634   0.195   0.460
  542W        W  563   3.083   0.053   2.687
  543W        W  564   0.840   0.111   3.649
  544W        W  565   0.404   2.223   1.286
  545W        W  566   1.520   3.847   1.367
  546W        W  567   1.307   2.565   1.084
  547W        W  568   1.499   0.142   2.381
  548W        W  569   3.004   1.621   1.835
  549W        W  570   2.942   2.729   3.452
  550W        W  571   3.808   4.288   3.407
  551W        W  572   3.142   0.267   1.179
  552W        W  573   2.410   3.907   1.462
  553W        W  574   3.575   3.075   0.949
  554W        W  575   1.606   3.606   0.871
  555W        W  576   3.967   4.174   2.840
  556W        W  577   0.872   0.839   4.117
  557W        W  578   4.080   2.224   3.421
  558W        W  579   2.142   0.274   4.188
  559W        W  580   3.073   2.058   0.237
  560W        W  581   0.504   2.845   2.425
  561W        W  582   1.044   1.060   1.976
  562W        W  583   3.438   2.869   0.493
  563W        W  584   3.156   1.873   3.661
  564W        W  585   0.666   4.234   1.338
  565W        W  586   3.396   4.086   4.232
  566W        W  587   3.372   3.548   1.260
  567W        W  588   3.878   1.302   3.223
  568W        W  589   0.270   1.718   1.118
  569W        W  590   0.821   2.641   0.623
  570W        W  591   3.909   1.956   0.653
  571W        W  592   0.967   1.323   2.979
  572W        W  593   1.342   0.313   0.904
  573W        W  594   0.641   2.543   4.091
  574W        W  595   3.684   2.494   3.985
  575W        W  596   3.534   3.312   0.226
  576W        W  597   1.652   1.598   0.738
  577W        W  598   3.412   3.961   0.464
  578W        W  599   2.278   2.641   1.118
  579W        W  600   3.398   1.783   2.984
  580W        W  601   2.876   2.876   1.733
  581W        W  602   2.265   1.018   0.439
  582W        W  603   3.102   2.142   0.742
  583W        W  604   4.020   2.357   2.374
  584W        W  605   2.592   0.509   0.049
  585W        W  606   3.352   1.272   3.125
  586W        W  607   3.658   1.441   2.742
  587W        W  608   2.555   4.075   0.968
  588W        W  609   2.150   0.682   0.859
  589W        W  610   2.132   0.796   4.272
  590W        W  611   3.349   0.124   3.175
  591W        W  612   3.993   1.080   2.769
  592W        W  613   2.286   0.398   1.273
  593W        W  614   0.966   0.275   2.346
  594W        W  615   2.600   2.019   0.768
  595W        W  616   1.283   3.859   3.068
  596W        W  617   0.200   1.628   3.805
  597W        W  618   1.133   0.748   0.701
  598W        W  619   2.531   3.747   2.416
  599W        W  620   3.293   2.356   3.572
  600W        W  621   1.251   0.385   2.755
  601W        W  622   3.915   1.091   4.188
  602W        W  623   4.236   0.095   0.759
  603W        W  624   0.290   3.789   2.340
  604W        W  625   2.839   2.242   1.172
  605W        W  626   2.132   1.903   0.951
  606W        W  627   0.637   1.414   1.899
  607W        W  628   3.854   0.300   3.867
  608W        W  629   0.085   3.170   2.424
  609W        W  630   2.596   2.291   0.337
  610W        W  631   2.588   1.783   0.157
  611W        W  632   3.516   0.147   0.335
  612W        W  633   1.514   0.587   3.148
  613W        W  634   2.823   3.234   3.385
  614W        W  635   0.691   3.532   1.675
  615W        W  636   1.728   4.015   3.340
  616W        W  637   2.277   1.103   2.981
  617W        W  638   0.431   3.100   1.167
  618W        W  639   3.324   2.105   1.193
  619W        W  640   0.627   3.003   2.913
  620W        W  641   4.049   1.571   4.078
  621W        W  642   0.139   3.423   4.212
  622W        W  643   3.205   0.498   3.738
  623W        W  644   3.944   0.176   1.595
  624W        W  645   3.811   2.781   0.131
  625W        W  646   2.962   1.852   2.769
  626W        W  647   4.194   2.684   3.139
  627W        W  648   2.117   4.264   0.314
  628W        W  649   3.189   3.758   2.049
  629W        W  650   3.989   0.644   1.846
  630W        W  651   2.923   1.663   0.553
  631W        W  652   0.840   0.601   0.278
  632W        W  653   3.100   0.652   1.835
  633W        W  654   1.891   1.274   4.196
  634W        W  655   3.381   3.523   0.735
  635W        W  656   3.731   0.651   0.093
  636W        W  657   3.788   2.603   1.841
  637W        W  658   1.338   3.008   4.007
  638W        W  659   3.623   3.074   4.048
  639W        W  660   2.910   1.214   4.124
  640W        W  661   0.210   2.550   3.839
  641W        W  662   0.215   0.783   3.482
  642W        W  663   1.007   2.631   3.778
  643W        W  664   0.315   4.254   4.095
  644W        W  665   3.114   3.374   1.712
  645W        W  666   2.677   4.244   2.359
  646W        W  667   2.696   0.927   1.626
  647W        W  668   3.292   1.213   1.157
  648W        W  669   0.367   4.160   3.578
  649W        W  670   1.168   3.579   3.497
  650W        W  671   0.931   1.102   2.487
  651W        W  672   0.557   2.902   3.659
  652ION     NA  673   0.750   2.102   1.523
  653ION     NA  674   4.274   3.176   1.963
  654ION     NA  675   0.609   2.476   3.650
  655ION     NA  676   3.553   2.134   0.831
  656ION     NA  677   3.901   0.296   1.173
  657ION     NA  678   0.098   2.299   0.232
  658ION     NA  679   3.863   0.674   2.709
  659ION     CL  680   0.014   2.101   0.539
  660ION     CL  681   1.663   4.272   1.343
  661ION     CL  682   0.406   2.767   0.555
  662ION     CL  683   1.096   3.384   3.889
  663ION     CL  684   0.262   2.561   4.269
  664ION     CL  685   3.712   2.435   3.554
  665ION     CL  686   0.126   0.293   2.221
   4.29502   4.29502   4.29502
