FA2-ASN Glycan in aqueous solution
  686
    1ASN      O    1   2.655   1.913   2.562 -0.2584 -0.3447 -0.1411
    1ASN     CB    2   2.590   1.883   2.764  0.1353 -0.2006 -0.1797
    21BG     C1    3   2.308   1.992   2.998  0.1785 -0.1781  0.0208
    21BG     C3    4   2.028   2.018   3.090 -0.0131 -0.1029 -0.0931
    21BG     C2    5   2.039   2.349   2.963  0.1579  0.1819  0.1367
    21BG     C4    6   2.291   1.797   3.012  0.0715 -0.1457  0.2772
    32AF     C1    7   2.438   1.703   3.221  0.0630 -0.0481 -0.3555
    32AF     C2    8   2.266   1.894   3.417  0.0444 -0.0426 -0.1059
    32AF     C4    9   2.387   1.558   3.338  0.0385 -0.1799  0.1765
    43BG     C1   10   1.888   1.767   2.914 -0.5171 -0.0183 -0.3947
    43BG     C2   11   1.947   1.877   2.359 -0.0741  0.0553  0.1952
    43BG     C3   12   1.836   1.674   2.615  0.1527  0.2434 -0.0354
    43BG     C4   13   1.995   1.543   2.964 -0.2938 -0.4224 -0.0459
    54BM     C1   14   1.555   1.571   3.166  0.4514 -0.4122 -0.1135
    54BM     C2   15   1.572   1.385   3.260  0.0404 -0.3449 -0.2251
    54BM     C4   16   1.333   1.654   3.287 -0.1297  0.1883  0.0223
    65AM     C1   17   1.339   1.800   2.913 -0.1100  0.1638  0.0118
    65AM     C2   18   1.172   1.676   2.767  0.0413 -0.0375  0.0706
    65AM     C4   19   1.494   1.767   2.792  0.2785 -0.2559 -0.2405
    76BG     C1   20   0.864   1.727   2.660 -0.1396 -0.1288  0.2728
    76BG     C2   21   0.617   1.451   2.538  0.2682  0.2175 -0.1038
    76BG     C3   22   0.917   1.513   2.510 -0.3361  0.0501 -0.0964
    76BG     C4   23   0.941   1.862   2.495  0.1244  0.0493 -0.0965
    87AM     C1   24   1.508   1.224   3.274 -0.0948 -0.0576  0.2740
    87AM     C2   25   1.529   1.008   3.134  0.1159  0.2779 -0.0055
    87AM     C4   26   1.234   1.085   3.225 -0.1336  0.0506 -0.1092
    98BG     C1   27   1.818   0.877   3.295 -0.2542 -0.0206  0.3118
    98BG     C2   28   1.507   0.579   3.078  0.0494  0.0020  0.1495
    98BG     C3   29   1.751   0.568   3.294  0.0268  0.1090  0.0285
    98BG     C4   30   1.999   0.842   3.320 -0.2252 -0.4544 -0.1269
   10W        W   31   1.796   0.331   2.940  0.1400 -0.1277 -0.1191
   11W        W   32   0.385   2.051   6.003  0.1325  0.1452  0.2418
   12W        W   33   2.237   2.361   4.181 -0.0876  0.1962 -0.0077
   13W        W   34   0.836   0.023   9.687  0.0694  0.2116 -0.1982
   14W        W   35   1.691   1.018   0.792  0.2315  0.2111  0.3069
   15W        W   36   1.444   0.607   2.672  0.2366  0.0159  0.3121
   16W        W   37   2.401   2.412   6.391 -0.0732 -0.3665 -0.0330
   17W        W   38   1.583   2.151   0.450  0.0506 -0.0643 -0.0112
   18W        W   39   1.166   1.658   4.105  0.2443  0.2034  0.1225
   19W        W   40   1.308   1.510   4.537  0.4996 -0.0542 -0.1888
   20W        W   41   2.377   1.609   9.675 -0.2182 -0.1241 -0.3189
   21W        W   42   2.732   1.439   2.046  0.0098  0.0801 -0.1306
   22W        W   43   1.793   0.104   2.355  0.0883 -0.0092 -0.0664
   23W        W   44   2.325   1.700   2.238  0.1094  0.1360  0.1417
   24W        W   45   0.284   0.281   6.063  0.0836  0.1728 -0.1929
   25W        W   46   1.752   0.652   1.962  0.0737  0.0532  0.0011
   26W        W   47   2.703   0.350   3.602  0.1326 -0.2081  0.1948
   27W        W   48   1.736   1.450   6.717 -0.1767  0.0829 -0.0864
   28W        W   49   2.097   1.888   8.512 -0.0138 -0.0876  0.0803
   29W        W   50   2.359   1.940  10.302 -0.0386  0.1028  0.1550
   30W        W   51   0.818   1.436   0.963  0.1045  0.1999  0.0967
   31W        W   52   1.800   0.843   2.884  0.0438 -0.2072  0.0741
   32W        W   53   0.565   0.835   7.353  0.0205  0.3265 -0.0070
   33W        W   54   0.307   2.679   8.480  0.2940 -0.1079  0.2286
   34W        W   55   0.319   0.257   3.194  0.1215  0.1750 -0.0280
   35W        W   56   2.587   1.883   8.648  0.0320  0.0479 -0.3881
   36W        W   57   2.040   0.545   9.903 -0.2090 -0.1422 -0.3076
   37W        W   58   2.544   1.329   2.474 -0.0831 -0.0057 -0.1370
   38W        W   59   0.287   1.637   0.512  0.1846  0.1614 -0.0439
   39W        W   60   2.246   2.587   0.348 -0.1284 -0.1771  0.2107
   40W        W   61   2.639   0.328   5.775 -0.4175 -0.1065 -0.0320
   41W        W   62   0.421   1.760   8.139 -0.0930  0.1900  0.3300
   42W        W   63   1.359   0.490   4.370 -0.2920  0.0325  0.0055
   43W        W   64   2.044   0.216   1.689  0.3068  0.3384 -0.1615
   44W        W   65   0.755   1.907   0.584 -0.0355  0.0716  0.1194
   45W        W   66   1.763   0.081   8.776  0.1888  0.2507 -0.0234
   46W        W   67   0.833   0.173   1.512 -0.2355 -0.1427 -0.1822
   47W        W   68   1.832   2.669   4.916 -0.1258 -0.1843  0.1797
   48W        W   69   2.732   0.316   9.079  0.1604  0.1139 -0.0534
   49W        W   70   2.526   2.591   7.706 -0.0621  0.2287  0.0733
   50W        W   71   2.180   0.680   0.801  0.3618 -0.0080  0.4568
   51W        W   72   2.205   2.546   4.642 -0.1724 -0.0075 -0.0485
   52W        W   73   2.661   1.893   7.393 -0.0157 -0.3305  0.0617
   53W        W   74   0.675   0.756   6.673  0.3188  0.1836  0.1972
   54W        W   75   1.713   0.550   0.947 -0.0760 -0.0388  0.1289
   55W        W   76   1.602   1.500   1.006  0.0033 -0.0123  0.2310
   56W        W   77   1.147   0.880   6.774 -0.1487 -0.5093 -0.3070
   57W        W   78   2.448   0.770   5.748 -0.0953  0.2472  0.0775
   58W        W   79   0.280   2.680   9.875  0.2086  0.0422  0.1219
   59W        W   80   0.548   0.011   7.103 -0.0235  0.0377  0.1511
   60W        W   81   2.400   1.889   4.590 -0.0285 -0.2742  0.4145
   61W        W   82   1.088   2.627   7.198  0.2381 -0.2529  0.0576
   62W        W   83   0.663   1.325   6.756  0.1021  0.0110  0.0933
   63W        W   84   0.275   1.121   2.337 -0.0432 -0.0439 -0.2620
   64W        W   85   0.212   0.706   9.271 -0.0686 -0.2747  0.0686
   65W        W   86   1.178   1.370   8.881  0.0169 -0.2660  0.2626
   66W        W   87   0.380   2.569   9.110  0.0118  0.1242  0.2336
   67W        W   88   0.858   1.465   6.308  0.1377  0.1158 -0.1781
   68W        W   89   2.585   1.716   6.659  0.0260  0.0537  0.0144
   69W        W   90   0.543   0.148   2.256 -0.0188  0.2939  0.0469
   70W        W   91   0.475   1.425   1.380 -0.0397 -0.2688  0.0870
   71W        W   92   0.515   2.022   9.939 -0.3015  0.3308 -0.0584
   72W        W   93   0.051   1.947   2.117 -0.1776 -0.2501 -0.1042
   73W        W   94   0.329   2.527   4.705 -0.1651  0.0063  0.0659
   74W        W   95   0.180   1.376   7.971 -0.3027 -0.1794  0.4011
   75W        W   96   2.597   0.071   3.207 -0.0123 -0.0906  0.2595
   76W        W   97   1.041   1.187   3.876  0.0277  0.1269 -0.1014
   77W        W   98   1.186   1.557  10.233 -0.0859 -0.0159  0.0334
   78W        W   99   0.166   0.737   5.957  0.0973  0.1814  0.1813
   79W        W  100   0.708   1.376   0.458  0.0647 -0.1903  0.0271
   80W        W  101   1.409   0.579   7.279  0.0170  0.0146 -0.0506
   81W        W  102   2.176   0.739   1.682  0.0713  0.1561  0.0458
   82W        W  103   1.921   2.367   6.586  0.3973 -0.2222  0.1349
   83W        W  104   0.998   1.069   5.434  0.0383  0.0348 -0.0579
   84W        W  105   0.993   1.417   3.399  0.1880  0.0446  0.0068
   85W        W  106   0.574   2.048   1.930 -0.1029  0.1988 -0.0069
   86W        W  107   1.974   2.478   3.798  0.0362  0.2588 -0.0585
   87W        W  108   2.719   0.088   1.305  0.0951  0.3966  0.0494
   88W        W  109   0.645   2.270   8.444 -0.0742 -0.2963  0.0983
   89W        W  110   0.145   0.552   0.230  0.0984  0.1364  0.0848
   90W        W  111   1.357   0.213   6.934  0.1724 -0.1281  0.2079
   91W        W  112   2.626   0.226   5.247 -0.2497 -0.1225  0.2557
   92W        W  113   2.054   1.250   2.559  0.1424  0.2172 -0.0372
   93W        W  114   2.226   1.251   6.637  0.2764  0.3325 -0.0021
   94W        W  115   2.332   2.516   1.309 -0.0637  0.0636  0.0771
   95W        W  116   1.999   0.771   7.902 -0.0810 -0.3056 -0.1409
   96W        W  117   1.619   0.456   5.646 -0.3538 -0.1876 -0.0120
   97W        W  118   0.167   1.527   7.032  0.2208 -0.1245  0.2252
   98W        W  119   2.508   2.403   2.998 -0.2799  0.0058  0.2667
   99W        W  120   0.770   0.077   6.243 -0.0253  0.1111 -0.1057
  100W        W  121   0.634   1.589   9.522  0.1472  0.0744  0.0344
  101W        W  122   1.414   0.394   2.225 -0.0832 -0.0769  0.0099
  102W        W  123   2.064   0.285   3.896 -0.0370  0.2642  0.1176
  103W        W  124   1.282   0.674   8.603 -0.0127  0.1980  0.2168
  104W        W  125   0.730   1.982   7.704 -0.1792  0.2005  0.1956
  105W        W  126   0.375   0.770   3.019 -0.0428  0.0568  0.1644
  106W        W  127   1.374   2.582   5.165 -0.0787 -0.0498 -0.2396
  107W        W  128   0.599   0.075   0.783 -0.0152 -0.3619  0.0987
  108W        W  129   1.223   0.183   8.753  0.1482  0.1947  0.0430
  109W        W  130   1.995   1.520   4.439  0.2344 -0.0047 -0.1169
  110W        W  131   1.557   0.228  10.256  0.1059 -0.1192 -0.1444
  111W        W  132   2.505   1.322   0.032  0.1060 -0.0170 -0.1090
  112W        W  133   2.194   2.548   5.864 -0.1706  0.3780 -0.3161
  113W        W  134   1.495   0.733   4.790 -0.0629 -0.2977 -0.0274
  114W        W  135   2.414   2.302   5.480  0.2125  0.0011  0.0348
  115W        W  136   2.180   0.021   9.551 -0.2040 -0.2212 -0.0559
  116W        W  137   2.595   0.912   7.901  0.0925 -0.0870  0.2318
  117W        W  138   1.307   0.011   6.377 -0.0652 -0.1016 -0.0375
  118W        W  139   1.916   0.678   0.352  0.1513 -0.1128  0.0067
  119W        W  140   0.817   1.217   2.257  0.1131  0.1751 -0.0101
  120W        W  141   1.979   1.597   3.360  0.0798  0.2595 -0.0064
  121W        W  142   2.717   0.418   7.760 -0.1022 -0.0563  0.0023
  122W        W  143   0.573   2.240   0.935  0.2703  0.1350  0.1290
  123W        W  144   0.072   2.094   5.547  0.1247  0.0000  0.1611
  124W        W  145   0.682   0.604   0.148 -0.0573 -0.1892 -0.3986
  125W        W  146   2.719   1.159   8.384  0.3792  0.0387 -0.1140
  126W        W  147   1.344   2.527   1.450  0.2560  0.5315  0.0406
  127W        W  148   0.554   1.600   4.391  0.2601 -0.1478  0.1759
  128W        W  149   0.154   1.475   8.789 -0.1463  0.2524 -0.1434
  129W        W  150   2.333   1.256   5.702 -0.3401 -0.2812 -0.1747
  130W        W  151   0.130   2.295  10.145 -0.1806  0.2796 -0.1051
  131W        W  152   0.229   0.551   2.160  0.0301 -0.1486 -0.2333
  132W        W  153   0.335   0.121   0.046 -0.0283  0.3432  0.0976
  133W        W  154   2.434   0.361   0.397  0.2111  0.1611 -0.0429
  134W        W  155   1.532   1.953   2.289 -0.2444 -0.2512  0.1433
  135W        W  156   1.046   0.850   3.538  0.0915 -0.1394 -0.1076
  136W        W  157   0.553   1.017   6.279 -0.8339 -0.2884 -0.3295
  137W        W  158   0.362   0.897   8.802 -0.0726 -0.0150  0.0404
  138W        W  159   2.205   0.079   6.296  0.1223 -0.0549 -0.1518
  139W        W  160   0.001   2.660   3.876 -0.0089 -0.2657  0.1018
  140W        W  161   0.520   1.459  10.040 -0.1259  0.4133 -0.2282
  141W        W  162   2.305   0.457   2.073  0.1443 -0.2208 -0.0296
  142W        W  163   0.594   2.430   2.402  0.1146 -0.4377  0.2117
  143W        W  164   1.633   1.853   4.774  0.1216 -0.0169 -0.0905
  144W        W  165   1.130   0.625   1.430 -0.3386  0.1440  0.0756
  145W        W  166   1.884   0.406   9.464 -0.2362  0.1268 -0.0256
  146W        W  167   0.604   0.692   1.535 -0.0392 -0.0135  0.1329
  147W        W  168   2.322   2.637   6.886  0.1473 -0.1604  0.0017
  148W        W  169   2.357   2.307   8.394  0.0857 -0.1298 -0.1255
  149W        W  170   2.181   0.914   6.218  0.0095 -0.0656  0.2043
  150W        W  171   2.478   2.143   6.890  0.0176 -0.4142 -0.3118
  151W        W  172   2.408   0.834   0.233  0.2382  0.0083 -0.4097
  152W        W  173   0.757   0.953   4.958 -0.0301 -0.1302  0.1193
  153W        W  174   2.245   0.702   4.564 -0.2831 -0.2773 -0.0738
  154W        W  175   1.220   1.303   5.026  0.0017  0.1608 -0.1960
  155W        W  176   1.246   0.460   5.140  0.0103  0.1581 -0.0013
  156W        W  177   0.519   0.284   9.232  0.4474 -0.0105 -0.4108
  157W        W  178   0.468   0.920  10.114  0.1282  0.2573  0.1152
  158W        W  179   1.922   2.118   0.067 -0.1229  0.0081  0.0622
  159W        W  180   0.701   0.562   6.066  0.0849  0.3861 -0.1955
  160W        W  181   0.411   0.265   1.759 -0.0981 -0.2032 -0.0690
  161W        W  182   1.691   1.671   6.281 -0.0703  0.2270 -0.0448
  162W        W  183   0.173   1.985   4.392 -0.2667 -0.0028 -0.2187
  163W        W  184   2.229   2.020   0.503 -0.1377  0.1114 -0.1321
  164W        W  185   0.827   0.120   5.755 -0.1412  0.0117 -0.1544
  165W        W  186   1.067   0.863   6.246 -0.0321 -0.2111 -0.1881
  166W        W  187   1.772   2.013   8.900  0.2851 -0.2024  0.0567
  167W        W  188   1.660   1.924   6.697 -0.0195  0.0675 -0.0540
  168W        W  189   2.584   0.046  10.378 -0.1213  0.1595 -0.1143
  169W        W  190   1.023   0.380   9.354 -0.1403 -0.2710 -0.0087
  170W        W  191   0.888   1.038   1.261  0.0838 -0.0924 -0.0714
  171W        W  192   1.664   2.612   9.606  0.0578  0.2351 -0.2133
  172W        W  193   0.455   2.684   5.175 -0.0269  0.0500 -0.2009
  173W        W  194   0.874   1.371   2.922  0.0880 -0.0499  0.2913
  174W        W  195   1.011   2.629   9.213  0.0327  0.0904  0.1465
  175W        W  196   0.735   1.689   0.061 -0.0623 -0.0690 -0.0752
  176W        W  197   0.509   0.700   4.495  0.0321  0.1610  0.3420
  177W        W  198   1.407   1.942   5.788  0.1276 -0.0263 -0.0867
  178W        W  199   2.699   1.043   3.862 -0.3093 -0.3468 -0.1832
  179W        W  200   2.137   1.612   7.546 -0.0340  0.0874  0.1095
  180W        W  201   2.481   0.733   1.214  0.1091  0.2332  0.2157
  181W        W  202   0.365   2.009   0.121 -0.1878 -0.0434 -0.1008
  182W        W  203   1.499   1.149   7.137 -0.2296  0.1940  0.0996
  183W        W  204   0.945   1.908   1.118  0.0159 -0.0931  0.2619
  184W        W  205   2.086   2.279   3.389 -0.0942  0.2242  0.3768
  185W        W  206   2.431   0.518   9.399  0.0730 -0.3244  0.0019
  186W        W  207   0.788   1.173   0.039  0.3524  0.0082 -0.0900
  187W        W  208   1.882   1.935   1.881  0.0205 -0.0583  0.1667
  188W        W  209   2.320   1.337   3.662 -0.1562  0.2196 -0.0880
  189W        W  210   2.568   2.364   3.557 -0.0274  0.1994 -0.0733
  190W        W  211   1.000   2.211   1.654 -0.0162  0.1734  0.0266
  191W        W  212   1.074   0.823   9.540 -0.1447 -0.1127 -0.1580
  192W        W  213   0.464   2.433   6.345 -0.2627  0.1397 -0.3505
  193W        W  214   0.942   1.679   2.103  0.1057 -0.2578 -0.0188
  194W        W  215   1.651   1.595   0.068  0.3163 -0.1640 -0.0378
  195W        W  216   1.607   2.398   5.591  0.2231 -0.0404  0.1227
  196W        W  217   0.461   1.555   1.922 -0.4555 -0.1687 -0.1191
  197W        W  218   1.506   2.190   6.239  0.6731 -0.0382 -0.0839
  198W        W  219   2.022   1.643   4.916 -0.1263 -0.0894 -0.0768
  199W        W  220   1.653   1.938   3.196 -0.4881  0.3882 -0.0166
  200W        W  221   1.660   2.538   2.993  0.3556  0.1495 -0.0884
  201W        W  222   0.158   0.274   9.534 -0.1896  0.2704  0.0962
  202W        W  223   2.150   2.664   2.621 -0.2012  0.0543  0.0989
  203W        W  224   1.007   2.212  10.231 -0.1876  0.0608 -0.0858
  204W        W  225   2.280   2.421  10.117 -0.0977  0.2069  0.0140
  205W        W  226   1.473   0.218   9.183 -0.0696  0.4100 -0.0133
  206W        W  227   1.559   1.543   7.508 -0.0149  0.1505 -0.0139
  207W        W  228   0.202   1.189   9.205 -0.1604  0.0913 -0.0179
  208W        W  229   1.233   2.213   9.203  0.0641  0.1647 -0.0961
  209W        W  230   1.465   1.526   3.681  0.1387  0.0004 -0.1619
  210W        W  231   0.442   1.349   8.423 -0.1682 -0.2103 -0.0089
  211W        W  232   1.219   1.835   6.400  0.2754  0.2292  0.1449
  212W        W  233   0.877   2.494   1.264 -0.3052  0.3183  0.2717
  213W        W  234   1.929   1.848   7.145  0.1695 -0.4584  0.0175
  214W        W  235   1.642   2.687   1.900  0.0892 -0.1274 -0.1730
  215W        W  236   1.515   2.349   4.074 -0.2477  0.0261 -0.3685
  216W        W  237   2.667   2.251   1.687 -0.0504 -0.0484 -0.0530
  217W        W  238   2.380   1.423   8.661 -0.1492  0.1476 -0.1054
  218W        W  239   0.124   1.570   5.367  0.1963  0.0286 -0.1320
  219W        W  240   1.871   0.973   9.877 -0.2481 -0.0937  0.2099
  220W        W  241   1.752   0.086   6.098 -0.0651 -0.0997  0.2663
  221W        W  242   1.754   1.960   0.898  0.0914  0.1077  0.0192
  222W        W  243   0.232   1.169   4.301  0.3249 -0.2065 -0.0736
  223W        W  244   2.118   0.857   9.458 -0.0183 -0.0330 -0.1022
  224W        W  245   1.261   1.982   3.486  0.2793 -0.0564 -0.0952
  225W        W  246   2.033   0.260   0.080  0.1905  0.1870 -0.2205
  226W        W  247   2.157   1.459   6.185 -0.2739 -0.0030 -0.2021
  227W        W  248   1.570   1.631   9.884 -0.2148 -0.0722 -0.0749
  228W        W  249   0.911   1.757   9.109  0.1068  0.0889  0.0420
  229W        W  250   2.658   1.286   0.498 -0.0934 -0.0289  0.0185
  230W        W  251   0.019   2.101   6.444 -0.1553  0.0118  0.2405
  231W        W  252   0.978   1.067   7.320  0.3555  0.3458 -0.3731
  232W        W  253   2.505   1.138   9.474 -0.0688 -0.1202  0.0979
  233W        W  254   1.405   0.815   3.899 -0.1070 -0.0406 -0.1892
  234W        W  255   0.395   0.755   1.089 -0.3297  0.1885  0.0343
  235W        W  256   0.778   0.544   7.853 -0.0388  0.1833 -0.3577
  236W        W  257   1.857   0.339   4.623  0.2106  0.3771  0.0081
  237W        W  258   1.064   0.571   5.635 -0.1159 -0.2543 -0.1407
  238W        W  259   0.480   0.130   3.738 -0.3035  0.2467  0.0251
  239W        W  260   1.585   0.588   6.701 -0.1270 -0.0750  0.4520
  240W        W  261   1.596   1.334   5.552 -0.0530 -0.0224  0.1644
  241W        W  262   1.856   2.354   2.222 -0.0389  0.0771 -0.1213
  242W        W  263   0.567   0.612   3.535  0.4418 -0.1079  0.0575
  243W        W  264   0.312   1.262   0.887  0.0630  0.2247  0.1052
  244W        W  265   1.588   1.727   5.275 -0.2651 -0.0844 -0.0254
  245W        W  266   1.199   2.240   7.571 -0.0183 -0.1939 -0.1040
  246W        W  267   1.219   0.716   0.929  0.0140  0.1812 -0.0425
  247W        W  268   1.217   2.729   3.700 -0.4325  0.1623  0.3486
  248W        W  269   0.440   1.081   9.631 -0.0579 -0.0076  0.1153
  249W        W  270   0.600   1.185   7.728 -0.0755  0.1944 -0.1012
  250W        W  271   2.247   2.087   1.035 -0.2718  0.0046  0.1529
  251W        W  272   0.211   2.506   3.261  0.1243 -0.4402 -0.1255
  252W        W  273   1.269   1.789   0.711  0.0279 -0.1774 -0.1913
  253W        W  274   0.545   1.888   2.384  0.2017  0.2010  0.1238
  254W        W  275   0.078   1.041   1.390 -0.1288 -0.1934 -0.1633
  255W        W  276   1.374   1.255   9.626  0.0673 -0.1949  0.2067
  256W        W  277   0.323   1.025   0.473 -0.3020  0.0352 -0.0870
  257W        W  278   2.004   0.096   7.975  0.0235 -0.0010 -0.1147
  258W        W  279   0.982   1.652   6.795 -0.2078  0.1666  0.2985
  259W        W  280   1.337   1.717   1.865 -0.1421 -0.0841  0.1236
  260W        W  281   2.031   1.342   7.123  0.0958  0.0790  0.0210
  261W        W  282   1.464   1.964   1.429 -0.0079 -0.1302 -0.0209
  262W        W  283   2.185   2.025   3.814 -0.0774 -0.2631 -0.0197
  263W        W  284   0.242   0.984   6.972 -0.0439  0.2295 -0.2065
  264W        W  285   0.293   2.517   1.522 -0.0592 -0.0895  0.2139
  265W        W  286   1.196   0.828   9.106  0.5496  0.4278 -0.0352
  266W        W  287   1.038   0.423   6.516  0.0826  0.2452 -0.0437
  267W        W  288   2.468   1.728   1.302 -0.0244  0.0602  0.1119
  268W        W  289   0.544   2.064   1.413 -0.2256 -0.1956  0.0400
  269W        W  290   0.873   0.958   8.686  0.1222 -0.0235 -0.1051
  270W        W  291   2.694   0.905   1.980  0.0722 -0.1650 -0.0855
  271W        W  292   2.703   0.176   7.176 -0.3089 -0.0056 -0.1376
  272W        W  293   0.412   2.597   5.877 -0.0739 -0.1538 -0.1314
  273W        W  294   0.066   0.544   1.524  0.0759  0.0552 -0.1054
  274W        W  295   1.817   0.360   7.199 -0.1333 -0.0693  0.0340
  275W        W  296   1.479   2.020  10.234 -0.2695 -0.0522 -0.3054
  276W        W  297   1.855   1.237   7.761 -0.0527  0.2081  0.2498
  277W        W  298   0.656   1.524   3.838  0.1153 -0.1522 -0.1852
  278W        W  299   0.862   1.498   4.763 -0.2124  0.1609  0.1169
  279W        W  300   0.684   0.284   4.228  0.0950  0.1524 -0.0753
  280W        W  301   2.363   1.239   4.847  0.5263 -0.1113 -0.4007
  281W        W  302   2.308   1.242   7.971  0.1317  0.0240  0.0545
  282W        W  303   0.517   1.563   5.936 -0.0192  0.0150 -0.0933
  283W        W  304   1.724   1.290   4.887  0.2430  0.2913  0.0675
  284W        W  305   1.247   2.280   0.962 -0.3255 -0.0864 -0.2868
  285W        W  306   0.302   1.904   3.622  0.1658 -0.1231  0.0967
  286W        W  307   0.365   1.771   1.028 -0.2075  0.1385  0.1513
  287W        W  308   1.666   0.578   8.932 -0.1252 -0.0088 -0.1314
  288W        W  309   0.302   1.400   0.102  0.0573  0.0406 -0.3896
  289W        W  310   1.726   0.654   6.110  0.2826 -0.3392 -0.0893
  290W        W  311   0.968   1.861   5.950  0.4467 -0.0956  0.2154
  291W        W  312   2.451   0.770   5.085 -0.0862  0.0631 -0.2342
  292W        W  313   2.351   1.137   1.468  0.0347  0.0658  0.1970
  293W        W  314   1.234   1.193   0.813  0.0397 -0.1737  0.1025
  294W        W  315   1.015   1.874   8.338  0.0148  0.0874  0.0543
  295W        W  316   1.008   0.317   7.499 -0.1001 -0.2262 -0.1925
  296W        W  317   2.574   2.516   9.647 -0.1254  0.1567  0.0784
  297W        W  318   2.569   0.446   6.229  0.0224  0.0586  0.0006
  298W        W  319   0.553   2.006   4.668 -0.2346 -0.1914 -0.0260
  299W        W  320   2.196   0.117   9.011 -0.0183 -0.0684 -0.0344
  300W        W  321   0.889   1.506   7.921 -0.0270 -0.3594 -0.3088
  301W        W  322   0.783   0.135   3.349  0.1358 -0.1709  0.0626
  302W        W  323   0.820   0.062   8.069  0.1762 -0.2384  0.2220
  303W        W  324   0.209   1.184   7.415 -0.2937  0.0533 -0.0020
  304W        W  325   2.727   1.270   9.919 -0.1015  0.0269 -0.1149
  305W        W  326   2.193   1.251   9.112 -0.1384  0.0383 -0.1987
  306W        W  327   2.629   1.136   5.353 -0.0474 -0.4591 -0.2093
  307W        W  328   0.918   0.072   5.092 -0.1292 -0.1472  0.2949
  308W        W  329   0.830   2.580   4.517 -0.1091 -0.0378 -0.1766
  309W        W  330   0.871   0.122   0.217  0.2081 -0.3810  0.1153
  310W        W  331   2.464   1.888   7.839 -0.0912 -0.2407  0.1538
  311W        W  332   0.623   2.514  10.190  0.0822  0.1945  0.0133
  312W        W  333   0.831   2.184   2.752 -0.1493  0.2182  0.2202
  313W        W  334   0.215   0.546   4.016  0.1355 -0.2285  0.1530
  314W        W  335   1.776   2.614   0.294  0.1657 -0.2454 -0.0546
  315W        W  336   0.624   1.352   5.469 -0.0571  0.1923  0.0805
  316W        W  337   0.293   0.927   5.286 -0.0936  0.0901 -0.1248
  317W        W  338   1.664   2.014   9.482 -0.2204 -0.0581 -0.1240
  318W        W  339   0.230   2.692   7.551  0.1721  0.0169  0.0280
  319W        W  340   1.577   0.899   5.266 -0.1558 -0.0464 -0.1444
  320W        W  341   1.810   1.181   3.547 -0.0545  0.0653  0.0751
  321W        W  342   1.177   1.790   4.983  0.2156  0.2106  0.0058
  322W        W  343   2.550   0.246   9.834 -0.1625  0.1304  0.0911
  323W        W  344   2.728   2.740   6.239 -0.0499  0.1774  0.1659
  324W        W  345   0.408   1.082   1.729  0.0397  0.0710  0.0182
  325W        W  346   2.102   0.429   5.906 -0.4053 -0.0607 -0.0872
  326W        W  347   0.777   2.336   4.918  0.0164 -0.2010 -0.0026
  327W        W  348   1.651   0.332   7.746  0.2860 -0.2054 -0.2431
  328W        W  349   1.235   2.711   7.796 -0.4688  0.1024  0.0578
  329W        W  350   1.127   2.718  10.126 -0.0604 -0.2627  0.0882
  330W        W  351   2.290   0.004   3.586  0.2551 -0.0784 -0.0990
  331W        W  352   1.287   2.188   9.815 -0.2563 -0.0842  0.2556
  332W        W  353   2.142   1.812   6.543 -0.0148 -0.0011  0.1549
  333W        W  354   1.934   1.321   8.304 -0.3397  0.0108 -0.0887
  334W        W  355   0.106   1.748   9.637 -0.0572  0.0386  0.0265
  335W        W  356   2.677   2.132   3.984  0.2181 -0.0188 -0.0854
  336W        W  357   1.315   1.237   6.471 -0.0417 -0.1287 -0.0132
  337W        W  358   0.462   1.775   2.900  0.2781  0.3001  0.1037
  338W        W  359   2.686   1.035   2.865  0.0982  0.1344  0.2167
  339W        W  360   2.169   1.562   1.751  0.0398 -0.1566 -0.3147
  340W        W  361   2.361   1.807   5.845  0.0466  0.0588 -0.0771
  341W        W  362   1.313   0.028   5.646  0.2322 -0.2585  0.2145
  342W        W  363   2.634   1.500   6.215 -0.3153  0.2861 -0.1357
  343W        W  364   2.218   0.460   5.421  0.0142 -0.1107  0.3042
  344W        W  365   0.957   2.383   3.942  0.0857 -0.3305  0.0457
  345W        W  366   1.243   1.823   7.834 -0.3159  0.0931 -0.2157
  346W        W  367   0.959   0.743   4.196 -0.5297  0.1432  0.2696
  347W        W  368   1.013   1.537   7.448 -0.1276 -0.0621  0.0220
  348W        W  369   1.930   0.582   2.414  0.0353 -0.1721  0.1076
  349W        W  370   2.715   1.992   3.216 -0.1204  0.0271  0.2057
  350W        W  371   1.831   1.473   2.100  0.0126 -0.0060  0.1236
  351W        W  372   2.278   0.861   3.032  0.2952 -0.1149  0.1507
  352W        W  373   2.256   0.513   7.568 -0.1764 -0.0046 -0.0871
  353W        W  374   1.788   0.178   6.694 -0.2377 -0.2246 -0.2920
  354W        W  375   0.594   0.877   5.744 -0.0994 -0.5661 -0.2648
  355W        W  376   0.184   2.209   7.706 -0.2317  0.1033 -0.1976
  356W        W  377   0.113   0.833   3.446  0.1070  0.0424  0.0706
  357W        W  378   2.108   2.238   7.933  0.1115  0.3284 -0.1597
  358W        W  379   1.525   0.395   0.397  0.0209 -0.2899 -0.1135
  359W        W  380   0.964   1.827   3.119  0.0133  0.1658  0.0682
  360W        W  381   1.100   0.695   3.052 -0.0976 -0.0174  0.1835
  361W        W  382   0.425   1.844   6.767 -0.0125  0.1810 -0.1140
  362W        W  383   0.758   2.009   3.608  0.2355  0.0004 -0.0455
  363W        W  384   1.506   1.285   4.122  0.3210 -0.1219 -0.1516
  364W        W  385   0.659   0.831   2.049  0.2234 -0.2656 -0.0186
  365W        W  386   2.059   1.742   9.212 -0.1921 -0.4835  0.0786
  366W        W  387   1.730   2.116   2.719  0.1889  0.0599 -0.0235
  367W        W  388   1.234   0.639   0.023  0.2148 -0.0087  0.0385
  368W        W  389   0.093   1.785   1.662 -0.0364 -0.1222  0.0693
  369W        W  390   1.618   1.797   4.220  0.2282 -0.2948 -0.0756
  370W        W  391   1.415   1.250   8.471 -0.0681 -0.2971  0.3124
  371W        W  392   2.622   0.178   2.381  0.0565  0.0950 -0.0362
  372W        W  393   0.187   1.590   2.487 -0.1085  0.1541 -0.0515
  373W        W  394   2.662   0.766   7.287 -0.2054 -0.0022  0.2284
  374W        W  395   2.350   1.370   2.984 -0.0706  0.0144  0.2075
  375W        W  396   1.944   1.171   0.021  0.0759 -0.0706 -0.0867
  376W        W  397   0.560   1.987   4.081  0.1628  0.0948 -0.0623
  377W        W  398   1.997   2.125   6.098  0.0825  0.1998  0.0939
  378W        W  399   1.329   0.152   4.730 -0.1468 -0.0791 -0.1761
  379W        W  400   1.242   0.478   8.061 -0.1369 -0.2990 -0.0648
  380W        W  401   0.546   1.577   3.346  0.0898 -0.4902  0.1337
  381W        W  402   2.287   1.693   5.391 -0.0381 -0.0999  0.2839
  382W        W  403   0.733   1.958   6.414 -0.2107  0.0697  0.0731
  383W        W  404   2.645   2.017   9.150  0.0205 -0.0752  0.1227
  384W        W  405   1.402   2.382   6.723  0.0047  0.0114 -0.0044
  385W        W  406   2.489   0.501  10.249  0.0211  0.1862  0.1493
  386W        W  407   1.323   1.294   7.955  0.0181  0.0234  0.0351
  387W        W  408   1.667   0.997   2.306  0.0111  0.0413 -0.1006
  388W        W  409   0.914   1.257   5.907 -0.0288 -0.0621  0.0642
  389W        W  410   0.088   0.424   0.956 -0.3372 -0.0810 -0.1127
  390W        W  411   0.087   1.652   5.840  0.0347  0.0443 -0.1318
  391W        W  412   0.774   1.130   4.425 -0.3995 -0.0784 -0.0881
  392W        W  413   0.017   0.720   9.733 -0.0704 -0.1456 -0.1266
  393W        W  414   0.688   2.581   1.852 -0.1365 -0.6193  0.5110
  394W        W  415   0.227   0.097   4.361  0.0200  0.3175 -0.0790
  395W        W  416   1.842   0.612   4.193  0.1284  0.1919 -0.0211
  396W        W  417   0.044   0.661   8.300 -0.2347  0.2447 -0.0983
  397W        W  418   1.074   0.903   0.400  0.2875  0.3379  0.1296
  398W        W  419   1.261   2.234   2.983 -0.2460  0.2664 -0.1644
  399W        W  420   2.623   0.196   6.661 -0.1450 -0.1059 -0.0705
  400W        W  421   0.392   0.339   8.069 -0.3297 -0.0204  0.0999
  401W        W  422   2.686   0.808   0.681  0.2819  0.0148 -0.0230
  402W        W  423   0.556   2.157   3.194 -0.0153  0.0550  0.1213
  403W        W  424   1.499   2.351   4.662 -0.1773 -0.3491  0.0361
  404W        W  425   1.331   0.268   1.723 -0.0489 -0.1730 -0.1501
  405W        W  426   0.152   1.286   6.545 -0.0084 -0.1138  0.0506
  406W        W  427   2.385   1.666   7.104  0.3928  0.0170 -0.4229
  407W        W  428   2.291   0.919   8.426  0.2627  0.2219  0.2166
  408W        W  429   0.914   0.415   1.969 -0.1765 -0.0366 -0.0485
  409W        W  430   1.793   0.794   7.457 -0.2612 -0.0982  0.3778
  410W        W  431   1.743   2.196   5.135 -0.1945  0.0084 -0.1534
  411W        W  432   0.245   1.343   3.635  0.1564  0.1139  0.0061
  412W        W  433   2.251   0.311   4.872  0.1786  0.5051 -0.2854
  413W        W  434   2.456   2.077   9.772 -0.0879 -0.0420 -0.0440
  414W        W  435   0.038   1.567   4.582  0.2237 -0.1637 -0.2143
  415W        W  436   1.829   2.691   4.328 -0.3100 -0.1960  0.3109
  416W        W  437   0.582   0.198   4.756  0.1874 -0.0195  0.1902
  417W        W  438   2.612   2.216   5.974  0.0842  0.2107  0.2274
  418W        W  439   1.984   1.030   3.995 -0.1881  0.0494 -0.1741
  419W        W  440   2.421   0.418   8.665  0.3197 -0.0579 -0.0494
  420W        W  441   0.351   1.876   9.218 -0.3044 -0.1565 -0.3209
  421W        W  442   0.221   2.224   2.745 -0.5602 -0.4524 -0.1113
  422W        W  443   2.045   1.697   8.036  0.0351 -0.1355 -0.0485
  423W        W  444   1.865   2.400   7.088 -0.2393  0.1747 -0.1360
  424W        W  445   1.510   0.291   3.970  0.0841  0.0536 -0.1360
  425W        W  446   1.967   0.841   4.964 -0.0561 -0.1680 -0.0137
  426W        W  447   1.123   0.828   2.285 -0.0914 -0.0661  0.2230
  427W        W  448   0.019   2.121   1.180 -0.0258 -0.0517  0.2039
  428W        W  449   2.003   0.797   7.010  0.0981 -0.0038  0.3410
  429W        W  450   2.254   0.390   2.776  0.1075  0.1670  0.1793
  430W        W  451   2.117   1.607   0.779 -0.0915 -0.2301  0.3278
  431W        W  452   0.622   1.379   7.207  0.1865 -0.1052  0.1179
  432W        W  453   2.162   0.045   8.483 -0.2904  0.2871  0.1346
  433W        W  454   2.132   2.726   3.100 -0.0591 -0.1634 -0.2019
  434W        W  455   1.479   1.693   9.118 -0.0201  0.0660 -0.0912
  435W        W  456   1.953   0.936   1.202  0.2400  0.1781 -0.2701
  436W        W  457   2.212   2.126   2.588 -0.1920 -0.1412 -0.2487
  437W        W  458   2.197   2.061   5.047 -0.0101  0.0940 -0.0356
  438W        W  459   2.635   1.837   0.318 -0.0413 -0.2979 -0.0362
  439W        W  460   0.689   0.503   5.158  0.3122  0.0226 -0.0625
  440W        W  461   1.026   2.048   4.435  0.3111 -0.1387 -0.0597
  441W        W  462   2.541   2.313   0.761 -0.3255  0.3088 -0.1943
  442W        W  463   0.561   0.385   2.764  0.0762 -0.1383  0.0599
  443W        W  464   2.603   2.523   9.147 -0.1181 -0.0002  0.0290
  444W        W  465   1.257   2.621   8.348 -0.4219 -0.0521 -0.0354
  445W        W  466   0.536   0.993   3.857  0.0848  0.0600  0.2515
  446W        W  467   2.288   0.400   7.034  0.0031  0.1342 -0.0404
  447W        W  468   1.547   2.502  10.245  0.1329 -0.1769  0.2327
  448W        W  469   1.908   1.330   9.530  0.2609  0.3122 -0.0333
  449W        W  470   0.262   2.282   9.578 -0.1821  0.1262 -0.0927
  450W        W  471   1.952   0.553   8.445 -0.0171 -0.1804 -0.1179
  451W        W  472   0.495   0.559   0.651  0.2082 -0.0321  0.0980
  452W        W  473   2.057   1.493  10.082  0.4953  0.1267 -0.0688
  453W        W  474   0.949   0.376   3.846 -0.0046  0.1706 -0.3459
  454W        W  475   2.011   1.395   1.259 -0.1742  0.1597  0.0061
  455W        W  476   1.687   2.518   7.790 -0.1458 -0.4682 -0.1477
  456W        W  477   0.349   0.385   5.519  0.0668 -0.0313 -0.0507
  457W        W  478   1.221   2.133   5.338 -0.1196 -0.1907  0.1456
  458W        W  479   2.110   1.163   0.629  0.1742  0.1788 -0.1733
  459W        W  480   2.177   0.411   3.296 -0.1305 -0.0889  0.2467
  460W        W  481   1.207   0.365   6.039 -0.1192 -0.0945  0.0496
  461W        W  482   0.924   1.138   1.733  0.1739  0.2325  0.2043
  462W        W  483   0.391   2.438   4.205  0.1029 -0.0124  0.0216
  463W        W  484   1.255   0.094   3.162  0.1055  0.0811 -0.1466
  464W        W  485   1.174   1.965   0.231 -0.4329 -0.2099  0.2285
  465W        W  486   1.826   1.120   1.756 -0.0906 -0.0648 -0.2012
  466W        W  487   0.842   0.486   1.076 -0.1160 -0.0457 -0.2328
  467W        W  488   0.363   1.631   7.558  0.3073  0.1048 -0.1470
  468W        W  489   1.388   1.456   5.972 -0.2068  0.2104 -0.2564
  469W        W  490   2.410   0.831   2.486  0.1415 -0.1227  0.3724
  470W        W  491   2.483   0.109   0.817  0.2152 -0.0255  0.1403
  471W        W  492   0.599   1.812   8.606 -0.3179  0.1635 -0.0670
  472W        W  493   0.743   1.818   5.195 -0.0137  0.1277 -0.0058
  473W        W  494   2.494   0.816   6.729 -0.1595  0.1809 -0.1934
  474W        W  495   1.893   1.680   5.807  0.2165 -0.3677  0.0899
  475W        W  496   2.508   1.204   7.037  0.0847 -0.0698  0.1398
  476W        W  497   0.177   2.583   0.918  0.3351  0.3408 -0.0318
  477W        W  498   1.623   0.795   9.427 -0.2656  0.0244 -0.0232
  478W        W  499   0.608   2.349   6.863  0.2238 -0.0162  0.1910
  479W        W  500   1.867   1.513   8.804  0.0563  0.0592 -0.2381
  480W        W  501   2.187   2.186   7.415  0.2603 -0.1957  0.1716
  481W        W  502   2.648   0.974   6.247 -0.0314 -0.0590 -0.1521
  482W        W  503   0.220   0.396  10.063  0.0239  0.0944 -0.1588
  483W        W  504   2.128   0.700   8.985  0.2372 -0.2815  0.2260
  484W        W  505   2.645   1.220   3.339 -0.0860  0.1009 -0.4661
  485W        W  506   1.127   1.608   5.496 -0.1470 -0.3226  0.0119
  486W        W  507   1.286   0.873   7.754 -0.0592 -0.1499  0.1493
  487W        W  508   0.698   0.879   9.202  0.0248 -0.0890  0.0038
  488W        W  509   1.392   1.610   7.079 -0.0686  0.2028  0.1516
  489W        W  510   0.645   1.349   8.901 -0.0901 -0.1682 -0.2511
  490W        W  511   0.437   0.173   1.249 -0.0238  0.2376  0.1314
  491W        W  512   2.666   0.539   3.119 -0.1694 -0.2149  0.1310
  492W        W  513   0.805   2.112   9.500  0.2851 -0.2094  0.1438
  493W        W  514   1.520   2.748   7.365  0.2281  0.2003 -0.4134
  494W        W  515   1.214   2.713   4.242  0.1653  0.3313 -0.0556
  495W        W  516   2.189   0.337   1.233 -0.0210 -0.0418 -0.0496
  496W        W  517   0.905   0.001   6.756  0.0321  0.1993 -0.1785
  497W        W  518   0.397   2.103   7.293 -0.0326 -0.0493 -0.1428
  498W        W  519   1.732   2.495   9.121  0.0748  0.4490 -0.0228
  499W        W  520   1.967   2.107   5.625  0.1732  0.0973  0.1434
  500W        W  521   0.944   2.705   2.549  0.0778  0.0128  0.0826
  501W        W  522   1.153   2.658   2.071 -0.1422 -0.1673  0.5982
  502W        W  523   0.034   0.546   4.477  0.0615  0.0014 -0.0685
  503W        W  524   0.136   2.435   6.766 -0.1769  0.1728 -0.0317
  504W        W  525   2.242   2.209   8.879  0.1211  0.0092  0.0950
  505W        W  526   1.175   2.165   8.683  0.0526  0.0395  0.0650
  506W        W  527   1.290   1.087   2.727  0.3855 -0.1959  0.1358
  507W        W  528   1.346   0.220   9.705  0.0833  0.0668  0.0599
  508W        W  529   2.415   1.624   4.148 -0.1750  0.0932 -0.1338
  509W        W  530   0.975   2.337   8.029  0.1989 -0.1365 -0.0417
  510W        W  531   0.862   1.692   1.645 -0.0965 -0.0049 -0.0572
  511W        W  532   0.740   0.540   8.882  0.1021 -0.0610  0.1165
  512W        W  533   0.197   0.523   5.045 -0.1340 -0.0803  0.1055
  513W        W  534   1.509   2.389   3.480 -0.1367  0.1251  0.3324
  514W        W  535   2.329   2.223   2.034 -0.0680 -0.3143  0.0689
  515W        W  536   1.692   0.555   1.461 -0.2892 -0.0614 -0.0027
  516W        W  537   1.861   2.399   8.450  0.1821  0.1221  0.0810
  517W        W  538   1.418   0.914   5.771 -0.3677 -0.0373  0.0312
  518W        W  539   2.649   0.074   1.816 -0.4314 -0.1289  0.1260
  519W        W  540   0.111   1.043   4.852 -0.0972  0.1260 -0.1212
  520W        W  541   1.999   2.371   1.683 -0.0256  0.3625 -0.1441
  521W        W  542   1.450   0.714   9.890  0.1602  0.0452 -0.1482
  522W        W  543   1.916   2.155   4.474  0.1259  0.1992 -0.0252
  523W        W  544   0.947   1.391   8.397 -0.0196  0.1182  0.3377
  524W        W  545   0.940   1.303   9.885 -0.0757  0.0268  0.0161
  525W        W  546   1.784   0.982   6.569  0.1660 -0.0163 -0.2593
  526W        W  547   1.402   2.431   2.478 -0.2905  0.3967 -0.4427
  527W        W  548   0.405   1.221   2.806  0.1291  0.0435  0.0687
  528W        W  549   1.046   2.156   2.219  0.2691 -0.2033  0.1656
  529W        W  550   1.914   0.839   5.687  0.0240  0.0140  0.0932
  530W        W  551   0.107   2.228   8.276 -0.1843  0.1927  0.1007
  531W        W  552   0.680   2.729   8.773  0.3636  0.0627 -0.0370
  532W        W  553   1.717   1.993   7.659 -0.0786  0.2113  0.0373
  533W        W  554   0.996   1.294   9.329  0.2250  0.0353 -0.2040
  534W        W  555   1.795   0.138   3.458  0.0773  0.1850  0.2071
  535W        W  556   2.432   0.592   4.004 -0.2212 -0.2232  0.2458
  536W        W  557   0.068   0.557   2.628  0.0579 -0.3694  0.2712
  537W        W  558   1.375   0.455   3.481 -0.0736  0.1015 -0.0549
  538W        W  559   0.886   0.460   2.438 -0.0770  0.0836 -0.2887
  539W        W  560   0.621   2.586   2.908 -0.3389  0.1711 -0.0482
  540W        W  561   1.479   1.033   1.266  0.2186 -0.0629 -0.0307
  541W        W  562   2.037   1.305   5.283  0.1041  0.3316  0.3197
  542W        W  563   0.801   0.410   8.429  0.1908 -0.0969  0.2516
  543W        W  564   1.189   1.454   1.298  0.1422  0.2908 -0.1108
  544W        W  565   2.482   1.076   4.284  0.2908  0.6515 -0.1142
  545W        W  566   2.153   2.698   7.395  0.2581  0.2334  0.1033
  546W        W  567   0.746   1.013   0.771  0.0636 -0.1393  0.1215
  547W        W  568   1.157   2.351   5.797  0.4326  0.2335 -0.0071
  548W        W  569   1.126   1.707   9.687 -0.0163  0.2507 -0.1671
  549W        W  570   1.349   0.854   1.789  0.0166 -0.1894 -0.4297
  550W        W  571   1.727   1.967   3.718  0.0268 -0.0162  0.0248
  551W        W  572   1.640   0.145   8.311 -0.0172 -0.2203 -0.2285
  552W        W  573   0.918   0.785  10.053 -0.0973  0.1452  0.2018
  553W        W  574   2.640   2.361   5.007  0.1809 -0.0800 -0.1117
  554W        W  575   2.654   2.729   8.715  0.2845 -0.1037 -0.1853
  555W        W  576   1.967   0.039  10.009 -0.3036  0.1748 -0.0414
  556W        W  577   0.186   2.451   2.035 -0.4185 -0.0172 -0.1646
  557W        W  578   1.988   0.197   0.579  0.0249 -0.1042  0.0322
  558W        W  579   1.822   0.687   3.665 -0.2737  0.3212  0.1314
  559W        W  580   1.968   1.901   1.362 -0.1105 -0.1957 -0.1307
  560W        W  581   0.319   1.698   6.337  0.4409  0.0892 -0.0541
  561W        W  582   0.755   2.198   8.952 -0.1787  0.0504 -0.0978
  562W        W  583   0.181   2.732   2.721 -0.1031  0.3248  0.1402
  563W        W  584   1.431   0.120   2.705  0.1283 -0.2866  0.2759
  564W        W  585   2.636   2.340   0.237  0.1248 -0.0442  0.2529
  565W        W  586   1.599   1.173   9.094  0.0626  0.0829  0.0849
  566W        W  587   1.530   1.020   0.297 -0.1097 -0.0828 -0.0469
  567W        W  588   1.618   0.876   8.153 -0.1484 -0.0596  0.1738
  568W        W  589   1.386   1.530   2.461  0.2010  0.1042  0.2618
  569W        W  590   1.262   2.524   0.265  0.2691 -0.2852 -0.2695
  570W        W  591   1.592   2.672   0.769  0.2835 -0.1072 -0.3291
  571W        W  592   2.552   1.391   7.548  0.3419  0.2801  0.3343
  572W        W  593   0.192   0.670   6.507 -0.2339 -0.2690 -0.0768
  573W        W  594   2.117   1.531   0.261  0.1010 -0.1794  0.1899
  574W        W  595   2.323   0.461   8.150  0.1203  0.0550  0.1080
  575W        W  596   0.233   2.194   8.771  0.2555 -0.1385  0.1614
  576W        W  597   0.765   0.901   2.661 -0.2327  0.3925 -0.1776
  577W        W  598   0.702   2.472   7.565  0.1071 -0.4010 -0.2739
  578W        W  599   1.763   0.436   5.122 -0.0658 -0.1897 -0.1051
  579W        W  600   1.699   1.573   0.535  0.0668  0.1595 -0.4262
  580W        W  601   0.972   2.389   6.450 -0.0766  0.0213  0.3596
  581W        W  602   1.452   2.257   1.910  0.1104 -0.1958 -0.0796
  582W        W  603   0.988   0.534   4.715 -0.4372  0.0225  0.0080
  583W        W  604   0.855   0.480   7.034  0.3068 -0.0063 -0.4191
  584W        W  605   2.643   2.386   4.439 -0.0818 -0.2909  0.0161
  585W        W  606   0.141   1.613   4.064 -0.1526 -0.3466  0.0876
  586W        W  607   2.631   1.746   0.843  0.0138 -0.1475  0.2669
  587W        W  608   0.009   0.954  10.277  0.1410  0.0639 -0.0722
  588W        W  609   0.504   0.839   8.302  0.0107  0.4161 -0.0318
  589W        W  610   0.046   2.617   5.544 -0.2218  0.2455 -0.0952
  590W        W  611   2.244   1.041   7.492  0.0936 -0.3412  0.1531
  591W        W  612   1.426   2.108   7.101 -0.1482 -0.0765  0.2835
  592W        W  613   2.523   1.289   1.040 -0.0799 -0.1680 -0.3906
  593W        W  614   2.594   2.384   2.472 -0.0489 -0.3071  0.1888
  594W        W  615   2.560   1.600   8.221  0.4116  0.2186  0.0158
  595W        W  616   2.347   0.804   3.566 -0.0683  0.0857 -0.1468
  596W        W  617   1.197   1.436   0.292  0.0662  0.2205  0.1033
  597W        W  618   0.310   0.467   6.959  0.1390  0.1494  0.0160
  598W        W  619   2.674   2.429   7.253 -0.0321 -0.1497 -0.0223
  599W        W  620   0.320   0.814   7.822  0.1300  0.2793  0.0000
  600W        W  621   2.594   1.537   9.217 -0.2054  0.1895  0.2017
  601W        W  622   1.107   0.245   0.649 -0.2292 -0.1435 -0.2214
  602W        W  623   2.095   0.504   6.522  0.3696  0.2251  0.2016
  603W        W  624   0.177   1.198   5.754 -0.1746 -0.1957 -0.0576
  604W        W  625   1.457   1.171  10.208  0.1980  0.0540  0.1797
  605W        W  626   2.649   0.090   4.739  0.1421  0.1088  0.2635
  606W        W  627   1.718   0.119   1.262  0.0815  0.0143  0.3588
  607W        W  628   1.637   1.501   1.541  0.0973  0.3267  0.2110
  608W        W  629   0.734   0.333  10.095 -0.2471  0.0584  0.1126
  609W        W  630   0.486   2.404   3.716  0.1972 -0.0822 -0.0831
  610W        W  631   2.586   0.958   8.936 -0.0832  0.0713 -0.0863
  611W        W  632   0.426   2.472   8.009 -0.2929 -0.0040 -0.3153
  612W        W  633   0.406   1.386   5.002 -0.3068 -0.1726  0.1537
  613W        W  634   0.423   0.342   7.484 -0.2297 -0.2008 -0.0394
  614W        W  635   0.890   1.965   7.150  0.3488  0.0726 -0.0466
  615W        W  636   0.944   2.419   3.402 -0.2884 -0.1032 -0.0372
  616W        W  637   2.261   1.159   2.121  0.1047  0.0375 -0.2716
  617W        W  638   0.690   1.049   3.260  0.0211  0.0157 -0.2685
  618W        W  639   0.310   0.373   8.594  0.0664  0.0831 -0.0481
  619W        W  640   0.709   2.158   5.645 -0.0096  0.0276  0.1274
  620W        W  641   1.237   0.192   1.174  0.1855 -0.1778  0.2533
  621W        W  642   0.407   0.114   6.583 -0.3063 -0.1968 -0.0424
  622W        W  643   1.653   1.379   2.842 -0.0114  0.0165 -0.1884
  623W        W  644   2.470   0.132   4.235  0.3524 -0.0735  0.0176
  624W        W  645   1.938   1.047   8.728  0.2629 -0.0972 -0.3150
  625W        W  646   1.798   2.359   1.230 -0.0273  0.1312  0.3482
  626W        W  647   1.257   1.035   4.489  0.1120  0.1822 -0.4001
  627W        W  648   1.335   1.270   2.076 -0.0045  0.0948  0.1487
  628W        W  649   2.328   0.961  10.016  0.1411  0.0743  0.4911
  629W        W  650   2.112   2.532   0.849  0.0646  0.0731 -0.2681
  630W        W  651   2.731   2.745   8.150  0.1801  0.0992 -0.1574
  631W        W  652   1.014   0.965   8.199 -0.0214 -0.0874 -0.0840
  632W        W  653   1.766   1.156   6.069  0.1645  0.0324  0.1918
  633W        W  654   2.239   2.712   2.127 -0.0500 -0.0724  0.3512
  634W        W  655   0.604   0.549   9.630  0.1778 -0.2046 -0.0477
  635W        W  656   1.749   0.725  10.302 -0.2781  0.1569 -0.0959
  636W        W  657   0.033   1.751  10.128  0.1358 -0.1481  0.0196
  637W        W  658   2.196   2.649   5.226  0.1340 -0.1027 -0.3633
  638W        W  659   2.564   1.784   3.638  0.1586  0.2500 -0.0273
  639W        W  660   1.873   0.074   5.604 -0.1940  0.1176  0.1370
  640W        W  661   0.421   2.473   0.424 -0.0659 -0.0733  0.3496
  641W        W  662   0.894   2.487   0.606 -0.0978  0.4181  0.0256
  642W        W  663   1.887   1.048   4.456  0.2301  0.0508  0.0499
  643W        W  664   1.904   1.559   3.905 -0.0626  0.1648  0.0008
  644W        W  665   0.201   2.110   0.635 -0.1295  0.0019 -0.1164
  645W        W  666   0.136   0.156   0.514 -0.1640  0.0451 -0.1165
  646W        W  667   1.981   1.980   9.935  0.2479  0.4559  0.0520
  647W        W  668   0.415   2.188   5.234 -0.1596 -0.3509  0.1025
  648W        W  669   1.568   1.948   8.347  0.2077  0.0067  0.0933
  649W        W  670   2.199   2.205   9.374  0.1163  0.0699 -0.0736
  650W        W  671   0.094   1.921   4.922 -0.1274  0.4039 -0.3428
  651W        W  672   0.066   1.513   2.956  0.1503 -0.3752  0.0889
  652ION     NA  673   1.876   1.196   3.148 -0.0443 -0.0535  0.0141
  653ION     NA  674   2.331   0.098   5.577 -0.1105 -0.2383 -0.0623
  654ION     NA  675   2.048   1.863   4.216  0.1774  0.1657 -0.2107
  655ION     NA  676   1.496   0.862   3.475 -0.0113 -0.4937 -0.2854
  656ION     NA  677   0.092   1.614   3.372 -0.4703 -0.1758  0.3312
  657ION     NA  678   0.456   1.811   5.542 -0.4034  0.0531 -0.0302
  658ION     NA  679   2.233   0.939   5.412 -0.0162  0.0585 -0.0590
  659ION     CL  680   1.289   1.403   2.999  0.2569  0.1403  0.0626
  660ION     CL  681   2.197   1.707   2.680 -0.1909 -0.0197  0.0759
  661ION     CL  682   2.184   1.169   3.300 -0.1630  0.0956 -0.0970
  662ION     CL  683   1.272   2.033   2.585  0.1004  0.0028 -0.3809
  663ION     CL  684   0.276   1.181   3.222  0.8273 -0.2878  0.3850
  664ION     CL  685   1.356   1.154   3.606  0.2600  0.2544 -0.0798
  665ION     CL  686   0.013   0.656   5.470 -0.3728 -0.2448  0.0582
   2.75288   2.75288  10.39701
