FA2-ASN Glycan in aqueous solution t=   0.00000 step= 0
   30
    1ASN      O    1   2.406   1.337   1.248
    1ASN     CB    2   2.396   1.461   1.479
    21BG     C1    3   2.584   1.567   1.685
    21BG     C3    4   2.473   1.768   1.823
    21BG     C2    5   2.320   1.854   1.600
    21BG     C4    6   2.639   1.506   1.839
    32AF     C1    7   2.477   1.416   2.023
    32AF     C2    8   2.252   1.531   1.930
    32AF     C4    9   2.397   1.207   2.076
    43BG     C1   10   2.388   1.920   2.170
    43BG     C2   11   2.375   1.567   2.329
    43BG     C3   12   2.401   1.834   2.458
    43BG     C4   13   2.547   2.065   2.156
    54BM     C1   14   2.172   2.107   2.421
    54BM     C2   15   2.000   2.163   2.284
    54BM     C4   16   2.141   1.989   2.639
    65AM     C1   17   2.410   1.873   2.833
    65AM     C2   18   2.555   1.831   2.808
    65AM     C4   19   2.410   1.677   2.981
    76BG     C1   20   2.794   2.028   2.895
    76BG     C2   21   2.607   1.964   3.171
    76BG     C3   22   2.852   2.087   3.145
    76BG     C4   23   3.005   1.948   2.862
    87AM     C1   24   1.824   2.365   2.060
    87AM     C2   25   1.635   2.489   2.065
    87AM     C4   26   1.846   2.413   1.816
    98BG     C1   27   1.524   2.790   2.303
    98BG     C2   28   1.322   3.164   2.067
    98BG     C3   29   1.540   3.049   2.335
    98BG     C4   30   1.450   2.821   2.537
   3.91477   3.91477   5.07155
