FA2-ASN Glycan in aqueous solution
  686
    1ASN      O    1   2.707   1.493   0.998
    1ASN     CB    2   2.520   1.613   1.166
    21BG     C1    3   2.607   1.863   1.419
    21BG     C3    4   2.399   2.058   1.499
    21BG     C2    5   2.346   2.028   1.166
    21BG     C4    6   2.634   1.877   1.644
    32AF     C1    7   2.473   1.614   1.662
    32AF     C2    8   2.319   1.669   1.889
    32AF     C4    9   2.281   1.543   1.526
    43BG     C1   10   2.369   2.031   1.861
    43BG     C2   11   2.686   1.671   1.962
    43BG     C3   12   2.573   1.968   2.081
    43BG     C4   13   2.428   2.256   1.819
    54BM     C1   14   2.134   2.205   2.119
    54BM     C2   15   1.912   2.372   2.100
    54BM     C4   16   2.148   2.223   2.362
    65AM     C1   17   2.445   2.083   2.570
    65AM     C2   18   2.670   2.038   2.456
    65AM     C4   19   2.485   1.853   2.712
    76BG     C1   20   2.882   2.265   2.558
    76BG     C2   21   2.638   2.168   2.886
    76BG     C3   22   2.927   2.304   2.852
    76BG     C4   23   3.135   2.205   2.564
    87AM     C1   24   1.734   2.574   1.949
    87AM     C2   25   1.605   2.781   2.082
    87AM     C4   26   1.489   2.518   1.875
    98BG     C1   27   1.439   3.068   2.256
    98BG     C2   28   1.593   3.272   1.938
    98BG     C3   29   1.554   3.342   2.272
    98BG     C4   30   1.239   3.131   2.401
   10W        W   31   3.623   4.144   1.332
   11W        W   32   2.112   2.664   0.387
   12W        W   33   4.244   3.808   2.765
   13W        W   34   0.866   3.089   4.094
   14W        W   35   2.130   3.946   0.758
   15W        W   36   0.337   0.927   0.227
   16W        W   37   4.168   1.685   1.133
   17W        W   38   3.978   0.149   4.251
   18W        W   39   2.218   3.174   0.241
   19W        W   40   4.209   3.942   0.812
   20W        W   41   3.045   4.169   2.597
   21W        W   42   0.884   3.347   2.582
   22W        W   43   1.536   1.219   2.525
   23W        W   44   2.747   3.613   3.428
   24W        W   45   0.722   0.861   1.609
   25W        W   46   4.157   3.572   3.615
   26W        W   47   1.279   2.172   3.977
   27W        W   48   3.065   2.139   3.217
   28W        W   49   1.337   1.217   3.321
   29W        W   50   2.086   1.402   0.220
   30W        W   51   0.346   4.037   3.040
   31W        W   52   1.897   3.725   3.651
   32W        W   53   1.218   1.324   1.324
   33W        W   54   0.837   2.099   4.255
   34W        W   55   2.301   3.273   3.556
   35W        W   56   2.863   1.277   2.082
   36W        W   57   4.210   3.277   1.162
   37W        W   58   2.115   4.125   3.005
   38W        W   59   3.820   3.667   0.241
   39W        W   60   1.248   2.166   1.333
   40W        W   61   0.481   1.255   0.852
   41W        W   62   2.125   1.610   3.679
   42W        W   63   0.318   2.031   2.759
   43W        W   64   0.275   0.411   0.163
   44W        W   65   1.664   0.755   3.556
   45W        W   66   0.097   1.289   2.237
   46W        W   67   3.808   2.489   0.748
   47W        W   68   3.194   1.330   3.633
   48W        W   69   2.842   3.310   2.475
   49W        W   70   1.261   4.206   0.635
   50W        W   71   2.401   2.986   1.752
   51W        W   72   2.016   1.159   0.852
   52W        W   73   4.158   3.927   4.225
   53W        W   74   1.676   2.119   3.649
   54W        W   75   4.046   0.903   2.344
   55W        W   76   2.262   3.881   1.983
   56W        W   77   2.217   2.802   0.892
   57W        W   78   1.505   0.251   1.975
   58W        W   79   3.699   1.259   3.624
   59W        W   80   3.220   3.997   1.615
   60W        W   81   2.729   3.063   3.779
   61W        W   82   3.998   2.977   1.517
   62W        W   83   2.263   0.604   2.132
   63W        W   84   0.113   0.355   1.865
   64W        W   85   1.039   3.876   1.507
   65W        W   86   0.928   1.782   1.182
   66W        W   87   4.065   3.987   1.694
   67W        W   88   0.625   3.052   0.764
   68W        W   89   2.720   2.528   1.702
   69W        W   90   0.369   3.036   4.168
   70W        W   91   0.187   2.192   4.214
   71W        W   92   2.458   0.210   3.797
   72W        W   93   4.028   2.122   3.984
   73W        W   94   0.610   2.484   2.833
   74W        W   95   0.957   1.748   2.084
   75W        W   96   1.300   0.792   0.229
   76W        W   97   1.749   2.621   0.798
   77W        W   98   0.729   3.017   1.641
   78W        W   99   0.807   3.912   3.688
   79W        W  100   1.637   1.644   3.460
   80W        W  101   1.786   0.633   1.715
   81W        W  102   3.090   2.591   2.388
   82W        W  103   3.491   2.236   0.442
   83W        W  104   0.538   0.393   1.063
   84W        W  105   3.147   3.209   1.269
   85W        W  106   3.569   2.084   3.720
   86W        W  107   2.966   0.874   3.652
   87W        W  108   2.594   4.177   4.232
   88W        W  109   3.730   1.603   0.179
   89W        W  110   2.222   0.792   2.639
   90W        W  111   0.773   2.272   1.123
   91W        W  112   1.281   4.033   0.138
   92W        W  113   2.753   3.866   1.770
   93W        W  114   1.466   4.147   1.660
   94W        W  115   2.569   1.775   3.884
   95W        W  116   1.869   1.202   3.433
   96W        W  117   0.342   3.728   3.628
   97W        W  118   3.006   1.674   4.128
   98W        W  119   1.791   3.089   4.255
   99W        W  120   0.613   3.797   1.150
  100W        W  121   3.682   3.274   1.243
  101W        W  122   3.921   2.972   0.856
  102W        W  123   1.275   3.638   0.487
  103W        W  124   3.450   1.755   0.621
  104W        W  125   4.040   3.031   2.928
  105W        W  126   2.669   3.396   1.968
  106W        W  127   1.766   0.205   2.962
  107W        W  128   3.503   4.084   2.808
  108W        W  129   3.917   3.727   1.185
  109W        W  130   0.170   4.206   2.093
  110W        W  131   3.382   1.698   1.522
  111W        W  132   0.018   3.692   0.372
  112W        W  133   2.555   3.648   4.275
  113W        W  134   0.184   4.202   0.220
  114W        W  135   2.126   4.231   1.216
  115W        W  136   0.273   1.662   4.207
  116W        W  137   2.549   0.637   3.475
  117W        W  138   2.764   0.212   2.944
  118W        W  139   1.169   0.826   3.655
  119W        W  140   2.926   2.622   3.973
  120W        W  141   3.939   2.231   2.020
  121W        W  142   0.710   3.821   2.741
  122W        W  143   1.763   2.189   4.163
  123W        W  144   3.121   2.634   1.358
  124W        W  145   2.175   0.100   2.128
  125W        W  146   2.896   3.528   3.925
  126W        W  147   3.551   0.654   0.548
  127W        W  148   2.709   3.644   2.904
  128W        W  149   1.723   3.000   0.465
  129W        W  150   4.224   2.643   1.818
  130W        W  151   1.328   2.166   0.185
  131W        W  152   0.114   1.188   4.042
  132W        W  153   3.308   2.498   2.859
  133W        W  154   2.135   1.775   4.185
  134W        W  155   0.333   2.248   3.706
  135W        W  156   2.580   0.766   1.196
  136W        W  157   0.204   3.552   3.175
  137W        W  158   3.204   1.198   1.709
  138W        W  159   0.377   3.391   2.712
  139W        W  160   3.585   2.052   4.266
  140W        W  161   1.259   2.967   1.899
  141W        W  162   3.521   0.131   2.369
  142W        W  163   2.347   3.274   2.975
  143W        W  164   0.077   0.350   1.296
  144W        W  165   0.827   0.552   2.603
  145W        W  166   0.993   0.876   3.141
  146W        W  167   0.263   3.219   3.604
  147W        W  168   2.779   4.041   3.724
  148W        W  169   1.850   2.962   1.781
  149W        W  170   1.583   0.871   4.089
  150W        W  171   4.150   2.606   4.200
  151W        W  172   3.967   0.640   0.881
  152W        W  173   0.725   1.753   2.941
  153W        W  174   0.925   2.614   3.253
  154W        W  175   4.188   1.247   1.754
  155W        W  176   1.184   2.119   0.836
  156W        W  177   4.148   0.150   3.023
  157W        W  178   3.829   2.229   1.169
  158W        W  179   2.687   1.442   3.502
  159W        W  180   1.702   0.027   0.032
  160W        W  181   0.395   1.955   0.313
  161W        W  182   3.221   2.888   3.216
  162W        W  183   3.101   3.928   0.756
  163W        W  184   1.772   4.065   2.062
  164W        W  185   3.429   2.234   2.083
  165W        W  186   2.397   3.716   3.789
  166W        W  187   3.514   3.918   2.310
  167W        W  188   1.676   1.716   3.967
  168W        W  189   3.462   3.071   1.676
  169W        W  190   0.505   0.286   2.224
  170W        W  191   0.674   1.286   3.177
  171W        W  192   0.896   0.360   0.655
  172W        W  193   3.753   3.129   2.503
  173W        W  194   2.125   4.044   4.090
  174W        W  195   0.012   2.527   0.675
  175W        W  196   3.221   3.035   4.112
  176W        W  197   3.584   3.449   2.091
  177W        W  198   0.704   0.102   0.261
  178W        W  199   2.298   3.067   4.044
  179W        W  200   3.135   4.216   2.080
  180W        W  201   0.661   1.717   1.642
  181W        W  202   0.455   0.436   3.618
  182W        W  203   0.326   2.687   1.505
  183W        W  204   0.176   2.785   0.267
  184W        W  205   1.707   4.178   3.813
  185W        W  206   1.247   1.754   0.482
  186W        W  207   3.584   3.220   3.033
  187W        W  208   3.664   3.387   3.551
  188W        W  209   3.052   1.605   3.167
  189W        W  210   1.177   0.608   1.743
  190W        W  211   2.545   3.194   0.938
  191W        W  212   3.658   1.756   1.084
  192W        W  213   3.413   0.898   3.373
  193W        W  214   1.563   3.417   3.865
  194W        W  215   1.449   1.279   3.810
  195W        W  216   3.619   3.683   1.622
  196W        W  217   0.667   4.113   2.322
  197W        W  218   0.151   2.154   3.227
  198W        W  219   1.644   1.829   1.404
  199W        W  220   0.282   1.652   3.224
  200W        W  221   2.252   3.699   3.267
  201W        W  222   3.663   0.419   3.362
  202W        W  223   1.245   3.010   0.247
  203W        W  224   1.229   1.709   4.237
  204W        W  225   3.410   3.522   4.023
  205W        W  226   4.187   2.198   1.528
  206W        W  227   0.062   2.152   1.018
  207W        W  228   0.435   2.262   0.688
  208W        W  229   2.992   0.173   1.647
  209W        W  230   1.673   0.388   3.952
  210W        W  231   1.172   1.709   3.197
  211W        W  232   0.855   2.815   1.178
  212W        W  233   0.751   1.668   3.989
  213W        W  234   0.567   1.115   2.221
  214W        W  235   1.107   1.183   4.215
  215W        W  236   3.108   1.389   2.668
  216W        W  237   0.394   2.406   2.362
  217W        W  238   0.341   0.253   3.141
  218W        W  239   1.491   1.136   0.886
  219W        W  240   3.291   1.832   2.407
  220W        W  241   2.676   0.250   2.068
  221W        W  242   1.682   4.128   0.915
  222W        W  243   3.962   1.516   0.638
  223W        W  244   2.114   0.631   3.777
  224W        W  245   3.417   1.156   4.134
  225W        W  246   0.210   0.811   1.067
  226W        W  247   2.205   2.239   0.110
  227W        W  248   2.711   0.719   0.379
  228W        W  249   0.552   2.445   0.212
  229W        W  250   1.039   2.176   2.934
  230W        W  251   2.601   0.528   1.651
  231W        W  252   0.659   2.170   3.276
  232W        W  253   0.338   3.286   2.166
  233W        W  254   2.179   3.733   0.294
  234W        W  255   2.159   2.277   0.805
  235W        W  256   0.386   2.792   2.011
  236W        W  257   4.091   0.476   2.607
  237W        W  258   1.626   4.030   2.789
  238W        W  259   0.205   3.724   1.850
  239W        W  260   2.563   0.810   3.984
  240W        W  261   4.053   0.574   3.942
  241W        W  262   2.444   2.630   3.811
  242W        W  263   4.193   3.081   3.949
  243W        W  264   4.158   0.770   0.120
  244W        W  265   3.609   2.212   2.554
  245W        W  266   3.730   1.099   0.804
  246W        W  267   0.639   4.047   1.814
  247W        W  268   2.731   2.871   2.140
  248W        W  269   3.964   1.214   1.272
  249W        W  270   3.579   2.690   2.274
  250W        W  271   1.253   4.112   3.536
  251W        W  272   2.540   4.103   2.723
  252W        W  273   0.790   4.199   0.855
  253W        W  274   0.426   1.332   3.658
  254W        W  275   3.001   3.424   0.829
  255W        W  276   1.188   3.447   2.115
  256W        W  277   1.775   2.254   0.436
  257W        W  278   3.945   0.821   3.489
  258W        W  279   2.631   2.835   1.291
  259W        W  280   1.774   1.021   0.365
  260W        W  281   3.702   1.093   0.282
  261W        W  282   4.037   2.654   3.708
  262W        W  283   1.256   0.836   2.716
  263W        W  284   2.677   1.626   2.396
  264W        W  285   3.567   0.855   1.549
  265W        W  286   1.148   3.377   1.604
  266W        W  287   0.470   3.747   0.154
  267W        W  288   0.148   1.722   1.626
  268W        W  289   3.121   4.249   1.173
  269W        W  290   0.822   2.117   3.760
  270W        W  291   2.608   1.886   3.228
  271W        W  292   0.997   1.338   0.852
  272W        W  293   0.221   4.227   1.574
  273W        W  294   1.293   0.805   1.241
  274W        W  295   3.078   3.951   3.114
  275W        W  296   2.222   0.158   0.764
  276W        W  297   1.641   3.609   3.189
  277W        W  298   0.189   0.810   1.604
  278W        W  299   3.196   2.634   1.882
  279W        W  300   2.673   2.190   4.180
  280W        W  301   4.004   2.187   2.939
  281W        W  302   2.628   1.460   2.920
  282W        W  303   0.268   0.704   4.037
  283W        W  304   2.136   1.576   3.153
  284W        W  305   3.991   3.471   0.721
  285W        W  306   4.044   3.921   2.207
  286W        W  307   1.917   3.520   2.125
  287W        W  308   0.165   1.158   3.129
  288W        W  309   1.140   3.022   0.752
  289W        W  310   4.230   0.338   3.505
  290W        W  311   3.207   3.092   2.145
  291W        W  312   3.637   1.773   2.005
  292W        W  313   0.869   3.381   0.265
  293W        W  314   3.825   2.629   2.733
  294W        W  315   0.305   0.466   2.664
  295W        W  316   2.170   3.112   1.304
  296W        W  317   1.314   0.646   2.247
  297W        W  318   3.136   0.455   0.268
  298W        W  319   2.956   2.889   0.892
  299W        W  320   0.816   3.606   4.112
  300W        W  321   0.403   2.615   3.295
  301W        W  322   1.582   2.025   3.123
  302W        W  323   3.637   2.732   1.237
  303W        W  324   2.330   1.099   3.633
  304W        W  325   4.179   3.969   3.258
  305W        W  326   2.618   0.184   1.268
  306W        W  327   0.715   2.898   0.286
  307W        W  328   1.732   0.185   0.540
  308W        W  329   0.334   1.455   2.730
  309W        W  330   1.778   3.142   0.962
  310W        W  331   0.667   2.140   1.933
  311W        W  332   2.707   1.073   0.781
  312W        W  333   3.328   2.521   0.885
  313W        W  334   1.529   3.672   1.806
  314W        W  335   2.138   3.402   0.693
  315W        W  336   4.182   1.291   0.204
  316W        W  337   0.363   3.280   0.363
  317W        W  338   0.868   3.936   0.405
  318W        W  339   2.877   1.548   1.517
  319W        W  340   0.424   1.693   2.117
  320W        W  341   2.627   3.413   0.456
  321W        W  342   3.044   4.264   0.179
  322W        W  343   0.807   4.172   3.231
  323W        W  344   2.332   0.238   3.237
  324W        W  345   4.211   1.307   3.566
  325W        W  346   4.206   1.814   0.264
  326W        W  347   3.151   2.155   3.999
  327W        W  348   3.183   0.959   0.273
  328W        W  349   1.200   1.737   3.716
  329W        W  350   1.332   0.330   3.567
  330W        W  351   0.293   4.212   1.060
  331W        W  352   4.116   2.666   2.303
  332W        W  353   0.788   0.870   1.101
  333W        W  354   1.578   2.579   3.882
  334W        W  355   3.972   0.385   0.411
  335W        W  356   2.425   1.328   4.121
  336W        W  357   0.855   0.390   3.220
  337W        W  358   0.393   2.646   1.010
  338W        W  359   2.699   1.063   2.563
  339W        W  360   1.751   1.341   1.272
  340W        W  361   3.131   1.672   1.056
  341W        W  362   0.757   3.397   3.665
  342W        W  363   4.210   4.096   3.746
  343W        W  364   4.172   1.757   2.073
  344W        W  365   3.221   3.654   2.681
  345W        W  366   1.194   2.188   3.434
  346W        W  367   3.629   4.202   1.877
  347W        W  368   1.301   3.455   0.001
  348W        W  369   0.473   0.745   3.073
  349W        W  370   3.653   4.036   4.177
  350W        W  371   3.728   3.882   3.685
  351W        W  372   3.238   1.464   0.235
  352W        W  373   3.553   3.736   3.178
  353W        W  374   3.829   1.752   2.515
  354W        W  375   3.717   0.752   2.978
  355W        W  376   1.307   2.557   0.513
  356W        W  377   0.975   2.820   2.564
  357W        W  378   0.807   1.634   0.221
  358W        W  379   3.931   1.738   1.577
  359W        W  380   3.113   0.172   0.699
  360W        W  381   3.086   3.103   0.416
  361W        W  382   3.178   3.221   3.611
  362W        W  383   0.168   0.955   2.659
  363W        W  384   1.934   3.924   1.576
  364W        W  385   2.726   2.212   3.659
  365W        W  386   2.953   0.160   3.973
  366W        W  387   3.915   3.498   4.057
  367W        W  388   0.152   1.725   0.717
  368W        W  389   0.942   1.283   3.704
  369W        W  390   2.521   2.669   0.040
  370W        W  391   0.800   2.499   1.586
  371W        W  392   1.689   1.010   2.988
  372W        W  393   3.999   0.194   2.146
  373W        W  394   0.841   4.116   4.161
  374W        W  395   3.935   1.731   3.623
  375W        W  396   2.841   0.181   3.455
  376W        W  397   2.595   4.079   3.234
  377W        W  398   3.541   0.350   1.385
  378W        W  399   3.999   3.501   3.127
  379W        W  400   0.410   1.278   1.764
  380W        W  401   0.371   0.191   0.629
  381W        W  402   0.703   1.324   1.322
  382W        W  403   2.399   1.474   0.645
  383W        W  404   0.093   2.618   2.747
  384W        W  405   0.181   4.273   2.597
  385W        W  406   0.002   1.127   0.693
  386W        W  407   1.172   1.747   1.624
  387W        W  408   1.871   3.006   3.754
  388W        W  409   3.876   3.022   2.009
  389W        W  410   4.110   4.203   1.239
  390W        W  411   1.682   3.817   4.206
  391W        W  412   3.685   1.324   1.720
  392W        W  413   2.950   2.136   2.164
  393W        W  414   3.375   1.366   2.206
  394W        W  415   3.265   2.508   0.049
  395W        W  416   2.728   1.248   0.276
  396W        W  417   0.806   0.679   2.094
  397W        W  418   0.233   3.514   0.841
  398W        W  419   0.981   0.407   1.305
  399W        W  420   1.858   0.269   3.477
  400W        W  421   2.146   1.876   0.461
  401W        W  422   3.754   3.629   2.678
  402W        W  423   2.740   3.153   4.309
  403W        W  424   1.738   0.532   0.162
  404W        W  425   3.227   3.734   3.580
  405W        W  426   1.784   0.860   2.197
  406W        W  427   3.706   2.736   3.227
  407W        W  428   3.080   2.143   1.669
  408W        W  429   2.551   3.695   0.891
  409W        W  430   2.026   3.651   2.799
  410W        W  431   1.163   2.223   1.831
  411W        W  432   0.712   3.632   2.122
  412W        W  433   1.273   0.047   4.017
  413W        W  434   3.667   0.269   2.856
  414W        W  435   1.675   2.151   0.995
  415W        W  436   2.335   2.817   3.328
  416W        W  437   1.742   3.475   0.296
  417W        W  438   3.142   0.438   2.174
  418W        W  439   2.420   4.281   1.689
  419W        W  440   2.035   2.635   4.124
  420W        W  441   3.673   4.016   0.809
  421W        W  442   1.373   1.434   2.053
  422W        W  443   1.407   1.664   0.976
  423W        W  444   1.483   0.324   1.438
  424W        W  445   3.164   0.924   2.343
  425W        W  446   3.639   0.236   0.879
  426W        W  447   0.591   1.252   4.219
  427W        W  448   1.086   3.335   3.087
  428W        W  449   0.569   0.755   0.660
  429W        W  450   3.040   0.587   3.203
  430W        W  451   1.164   3.091   3.577
  431W        W  452   0.399   3.955   0.626
  432W        W  453   2.912   3.763   1.257
  433W        W  454   3.514   1.631   3.953
  434W        W  455   1.766   2.757   1.301
  435W        W  456   1.176   0.535   4.090
  436W        W  457   1.288   2.640   1.522
  437W        W  458   0.675   0.084   2.769
  438W        W  459   3.601   0.630   2.475
  439W        W  460   1.254   0.263   0.242
  440W        W  461   0.693   1.040   2.715
  441W        W  462   2.635   3.363   1.431
  442W        W  463   1.912   0.129   1.662
  443W        W  464   0.176   3.155   1.696
  444W        W  465   0.137   0.204   3.985
  445W        W  466   3.596   0.931   2.056
  446W        W  467   2.678   3.928   0.408
  447W        W  468   3.567   2.234   3.223
  448W        W  469   2.182   3.468   1.677
  449W        W  470   0.213   0.718   2.202
  450W        W  471   1.707   3.337   1.461
  451W        W  472   4.056   1.686   3.114
  452W        W  473   0.210   3.043   3.101
  453W        W  474   1.080   2.586   4.295
  454W        W  475   1.701   1.803   0.190
  455W        W  476   1.812   0.301   1.053
  456W        W  477   3.137   3.431   3.138
  457W        W  478   3.884   1.352   2.191
  458W        W  479   1.126   3.985   2.040
  459W        W  480   1.042   0.104   1.723
  460W        W  481   3.221   1.240   0.737
  461W        W  482   0.803   1.131   0.392
  462W        W  483   0.121   3.764   1.317
  463W        W  484   2.220   2.172   3.886
  464W        W  485   2.225   0.483   0.360
  465W        W  486   2.685   0.510   2.513
  466W        W  487   3.581   0.432   1.905
  467W        W  488   3.115   0.675   4.107
  468W        W  489   3.618   2.137   1.621
  469W        W  490   0.182   1.285   1.296
  470W        W  491   0.360   1.424   0.370
  471W        W  492   3.570   2.890   3.694
  472W        W  493   4.013   0.697   1.374
  473W        W  494   0.756   2.037   2.478
  474W        W  495   1.120   4.135   2.611
  475W        W  496   2.586   2.891   0.508
  476W        W  497   1.804   0.806   1.202
  477W        W  498   2.635   2.488   0.860
  478W        W  499   3.316   4.229   3.644
  479W        W  500   0.644   0.324   4.097
  480W        W  501   2.613   0.727   2.970
  481W        W  502   2.226   0.256   2.692
  482W        W  503   0.124   3.011   0.737
  483W        W  504   1.943   1.226   3.961
  484W        W  505   2.314   3.180   2.269
  485W        W  506   1.731   0.618   2.655
  486W        W  507   1.200   1.765   2.657
  487W        W  508   0.678   1.740   0.717
  488W        W  509   0.161   2.178   1.962
  489W        W  510   4.242   0.678   3.069
  490W        W  511   2.751   0.777   2.076
  491W        W  512   1.707   2.321   1.571
  492W        W  513   2.520   2.378   2.224
  493W        W  514   0.593   0.358   1.687
  494W        W  515   3.083   0.720   0.742
  495W        W  516   2.013   0.632   3.130
  496W        W  517   3.496   1.702   3.389
  497W        W  518   2.086   4.045   2.482
  498W        W  519   1.244   3.826   3.957
  499W        W  520   1.251   4.239   1.197
  500W        W  521   0.734   1.705   3.472
  501W        W  522   2.064   3.507   4.125
  502W        W  523   0.088   0.625   0.590
  503W        W  524   0.864   2.589   2.098
  504W        W  525   1.299   1.259   0.426
  505W        W  526   3.486   0.735   1.061
  506W        W  527   2.210   1.328   2.653
  507W        W  528   4.181   2.631   1.174
  508W        W  529   2.663   0.438   0.821
  509W        W  530   3.044   0.996   1.214
  510W        W  531   0.728   3.555   0.713
  511W        W  532   0.781   1.503   2.491
  512W        W  533   4.176   3.230   0.156
  513W        W  534   4.080   3.475   1.620
  514W        W  535   1.669   0.675   0.707
  515W        W  536   2.180   4.142   3.553
  516W        W  537   1.121   3.796   0.964
  517W        W  538   0.876   2.134   0.452
  518W        W  539   3.971   4.143   0.388
  519W        W  540   1.277   0.071   3.097
  520W        W  541   0.708   3.665   3.233
  521W        W  542   3.430   0.216   4.129
  522W        W  543   2.934   1.105   3.184
  523W        W  544   1.600   1.515   2.962
  524W        W  545   1.600   2.629   0.105
  525W        W  546   4.031   2.285   0.291
  526W        W  547   0.888   3.340   1.156
  527W        W  548   1.717   3.975   0.419
  528W        W  549   4.072   3.084   3.436
  529W        W  550   4.150   3.426   2.125
  530W        W  551   2.124   2.043   3.391
  531W        W  552   3.574   0.760   3.843
  532W        W  553   3.048   3.585   0.160
  533W        W  554   1.330   3.062   1.233
  534W        W  555   3.000   2.560   0.484
  535W        W  556   2.041   3.608   1.164
  536W        W  557   1.994   2.524   3.588
  537W        W  558   3.242   0.888   2.838
  538W        W  559   0.813   3.098   2.142
  539W        W  560   3.263   3.011   2.675
  540W        W  561   0.662   0.892   3.523
  541W        W  562   2.630   0.150   0.413
  542W        W  563   3.181   0.390   2.694
  543W        W  564   0.868   0.130   3.686
  544W        W  565   0.421   2.159   1.480
  545W        W  566   1.537   3.808   1.285
  546W        W  567   1.288   2.583   1.021
  547W        W  568   1.741   0.141   2.439
  548W        W  569   3.106   1.709   1.946
  549W        W  570   2.815   2.662   3.444
  550W        W  571   3.725   4.215   3.274
  551W        W  572   3.047   0.473   1.205
  552W        W  573   2.424   3.854   1.384
  553W        W  574   3.422   3.074   0.842
  554W        W  575   1.673   3.626   0.806
  555W        W  576   3.957   4.230   2.597
  556W        W  577   0.771   0.829   4.013
  557W        W  578   4.009   2.207   3.472
  558W        W  579   2.129   0.287   4.182
  559W        W  580   3.072   2.012   0.226
  560W        W  581   0.471   2.909   2.513
  561W        W  582   1.447   1.045   1.699
  562W        W  583   3.477   2.749   0.445
  563W        W  584   3.052   1.821   3.631
  564W        W  585   0.712   4.265   1.354
  565W        W  586   3.147   3.966   4.075
  566W        W  587   3.396   3.700   1.149
  567W        W  588   3.949   1.173   3.123
  568W        W  589   0.409   1.746   1.167
  569W        W  590   0.836   2.584   0.705
  570W        W  591   3.947   2.007   0.716
  571W        W  592   1.109   1.308   2.861
  572W        W  593   1.328   0.364   0.918
  573W        W  594   0.657   2.548   4.013
  574W        W  595   3.651   2.496   4.006
  575W        W  596   3.687   3.200   0.381
  576W        W  597   1.738   1.510   0.602
  577W        W  598   3.403   3.943   0.331
  578W        W  599   2.301   2.435   1.301
  579W        W  600   3.436   1.847   2.897
  580W        W  601   2.924   3.017   1.688
  581W        W  602   2.291   0.993   0.451
  582W        W  603   3.078   2.103   0.750
  583W        W  604   4.203   2.172   2.457
  584W        W  605   2.631   0.407   4.276
  585W        W  606   3.456   1.306   3.061
  586W        W  607   3.660   1.125   2.613
  587W        W  608   2.666   4.190   0.862
  588W        W  609   2.182   0.663   0.857
  589W        W  610   2.116   0.845   4.270
  590W        W  611   3.264   0.131   3.151
  591W        W  612   4.122   1.344   2.676
  592W        W  613   2.181   0.454   1.358
  593W        W  614   1.024   0.204   2.230
  594W        W  615   2.569   1.955   0.814
  595W        W  616   1.184   3.857   3.060
  596W        W  617   0.143   1.773   3.718
  597W        W  618   1.119   0.826   0.709
  598W        W  619   2.441   3.655   2.440
  599W        W  620   3.257   2.473   3.591
  600W        W  621   1.302   0.325   2.660
  601W        W  622   3.915   1.077   4.072
  602W        W  623   4.181   0.179   0.827
  603W        W  624   0.268   3.774   2.366
  604W        W  625   2.779   2.197   1.251
  605W        W  626   2.051   1.758   0.970
  606W        W  627   0.937   1.289   1.810
  607W        W  628   3.797   0.124   3.766
  608W        W  629   4.287   3.102   2.495
  609W        W  630   2.617   2.236   0.399
  610W        W  631   2.579   1.746   0.169
  611W        W  632   3.532   0.143   0.349
  612W        W  633   1.436   0.573   3.123
  613W        W  634   2.748   3.134   3.264
  614W        W  635   0.622   3.526   1.601
  615W        W  636   1.703   4.102   3.303
  616W        W  637   2.274   1.082   3.110
  617W        W  638   0.411   3.142   1.225
  618W        W  639   3.310   2.134   1.213
  619W        W  640   0.699   3.003   2.979
  620W        W  641   4.066   1.589   4.085
  621W        W  642   0.163   3.518   4.080
  622W        W  643   3.243   0.436   3.651
  623W        W  644   3.977   0.222   1.617
  624W        W  645   3.982   2.790   0.365
  625W        W  646   2.922   1.885   2.764
  626W        W  647   4.194   2.616   3.217
  627W        W  648   2.162   4.247   0.289
  628W        W  649   3.048   3.702   2.184
  629W        W  650   4.032   0.701   1.881
  630W        W  651   2.902   1.638   0.583
  631W        W  652   0.800   0.627   0.205
  632W        W  653   3.107   0.681   1.696
  633W        W  654   1.592   1.340   0.018
  634W        W  655   3.471   3.559   0.661
  635W        W  656   3.651   0.631   0.042
  636W        W  657   3.701   2.614   1.757
  637W        W  658   1.345   2.994   4.040
  638W        W  659   3.752   2.977   4.203
  639W        W  660   2.916   1.170   4.086
  640W        W  661   0.233   2.729   3.778
  641W        W  662   0.153   0.846   3.547
  642W        W  663   1.080   2.597   3.750
  643W        W  664   0.353   4.032   4.038
  644W        W  665   3.130   3.491   1.709
  645W        W  666   2.663   4.070   2.234
  646W        W  667   2.714   1.051   1.622
  647W        W  668   3.461   1.282   1.226
  648W        W  669   0.382   4.230   3.548
  649W        W  670   1.207   3.597   3.514
  650W        W  671   1.066   1.102   2.317
  651W        W  672   0.683   2.904   3.625
  652ION     NA  673   0.867   2.074   1.523
  653ION     NA  674   4.304   3.004   2.070
  654ION     NA  675   0.684   2.479   3.588
  655ION     NA  676   3.544   2.126   0.852
  656ION     NA  677   3.943   0.310   1.184
  657ION     NA  678   0.163   2.340   0.325
  658ION     NA  679   4.044   0.924   2.769
  659ION     CL  680   0.044   2.109   0.562
  660ION     CL  681   1.701   4.248   1.322
  661ION     CL  682   0.436   2.692   0.585
  662ION     CL  683   1.130   3.388   3.900
  663ION     CL  684   0.282   2.608   4.192
  664ION     CL  685   3.681   2.474   3.570
  665ION     CL  686   0.085   0.306   2.314
   4.29502   4.29502   4.29502
