frame t= 0.000
   30
  149ASN      O    1   2.673   1.796   1.050
  149ASN     CB    2   2.423   1.836   1.199
    1BG      C1    3   2.384   1.931   1.553
    1BG      C3    4   2.240   2.193   1.642
    1BG      C2    5   2.290   2.287   1.319
    1BG      C4    6   2.274   1.876   1.745
    2AF      C1    7   2.135   1.563   1.751
    2AF      C2    8   1.903   1.643   1.908
    2AF      C4    9   2.006   1.369   1.630
    3BG      C1   10   2.036   2.139   1.904
    3BG      C2   11   2.285   1.901   2.160
    3BG      C3   12   2.011   2.091   2.206
    3BG      C4   13   1.967   2.379   1.907
    4BM      C1   14   1.939   2.461   2.299
    4BM      C2   15   1.678   2.509   2.295
    4BM      C4   16   1.949   2.567   2.521
    5AM      C1   17   2.160   2.298   2.648
    5AM      C2   18   2.373   2.200   2.523
    5AM      C4   19   2.075   2.050   2.682
    6BG      C1   20   2.593   2.456   2.725
    6BG      C2   21   2.390   2.222   3.044
    6BG      C3   22   2.629   2.455   3.040
    6BG      C4   23   2.823   2.523   2.729
    7AM      C1   24   1.546   2.737   2.238
    7AM      C2   25   1.350   2.784   2.416
    7AM      C4   26   1.397   2.771   2.045
    8BG      C1   27   1.445   3.034   2.618
    8BG      C2   28   1.545   3.271   2.230
    8BG      C3   29   1.462   3.342   2.534
    8BG      C4   30   1.278   3.125   2.786
   3.81372   3.54363   4.43445
