frame t= 0.000
   30
  149ASN      O    1   3.928   2.766   2.168
  149ASN     CB    2   3.678   2.806   2.317
    1BG      C1    3   3.639   2.901   2.671
    1BG      C3    4   3.495   3.163   2.760
    1BG      C2    5   3.545   3.257   2.437
    1BG      C4    6   3.529   2.846   2.863
    2AF      C1    7   3.390   2.533   2.869
    2AF      C2    8   3.158   2.613   3.026
    2AF      C4    9   3.261   2.339   2.748
    3BG      C1   10   3.291   3.109   3.022
    3BG      C2   11   3.540   2.871   3.278
    3BG      C3   12   3.266   3.061   3.324
    3BG      C4   13   3.222   3.349   3.025
    4BM      C1   14   3.194   3.431   3.417
    4BM      C2   15   2.933   3.479   3.413
    4BM      C4   16   3.204   3.537   3.639
    5AM      C1   17   3.415   3.268   3.766
    5AM      C2   18   3.628   3.170   3.641
    5AM      C4   19   3.330   3.020   3.800
    6BG      C1   20   3.848   3.426   3.843
    6BG      C2   21   3.645   3.192   4.162
    6BG      C3   22   3.884   3.425   4.158
    6BG      C4   23   4.078   3.493   3.847
    7AM      C1   24   2.801   3.707   3.356
    7AM      C2   25   2.605   3.754   3.534
    7AM      C4   26   2.652   3.741   3.163
    8BG      C1   27   2.700   4.004   3.736
    8BG      C2   28   2.800   4.241   3.348
    8BG      C3   29   2.717   4.312   3.652
    8BG      C4   30   2.533   4.095   3.904
   6.59345   6.59345   6.59345
