FA2-ASN Glycan in aqueous solution
  686
    1ASN      O    1   2.617   1.497   0.996 -0.1828  0.0125 -0.3702
    1ASN     CB    2   2.482   1.568   1.231 -0.1653  0.2185  0.0891
    21BG     C1    3   2.560   1.835   1.465  0.3633  0.3489  0.2503
    21BG     C3    4   2.350   1.997   1.625 -0.0217 -0.2832  0.1239
    21BG     C2    5   2.241   1.995   1.276  0.2089  0.1685 -0.0306
    21BG     C4    6   2.586   1.769   1.691  0.2865 -0.5279  0.2053
    32AF     C1    7   2.438   1.544   1.708  0.2219 -0.2766  0.2215
    32AF     C2    8   2.205   1.602   1.889 -0.1038  0.1635  0.0643
    32AF     C4    9   2.233   1.396   1.555 -0.7138  0.2166 -0.1857
    43BG     C1   10   2.378   2.011   1.956  0.1188 -0.1944  0.1393
    43BG     C2   11   2.581   1.686   2.095 -0.3639  0.1739  0.0730
    43BG     C3   12   2.551   2.003   2.177 -0.4960 -0.1397 -0.2708
    43BG     C4   13   2.376   2.219   1.924  0.0187  0.3148  0.1622
    54BM     C1   14   2.070   2.215   2.256 -0.4381 -0.0800  0.2956
    54BM     C2   15   1.826   2.291   2.178 -0.0504 -0.0924  0.0381
    54BM     C4   16   2.032   2.154   2.515 -0.1863 -0.1122  0.0924
    65AM     C1   17   2.357   2.015   2.661 -0.1132  0.1924  0.0498
    65AM     C2   18   2.613   2.022   2.585  0.3604 -0.1243 -0.1717
    65AM     C4   19   2.408   1.758   2.745 -0.2033  0.1935  0.3266
    76BG     C1   20   2.806   2.182   2.634 -0.5027  0.2720  0.3700
    76BG     C2   21   2.533   2.233   2.892 -0.0530  0.0733 -0.1795
    76BG     C3   22   2.773   2.279   2.943  0.1250 -0.2326  0.0564
    76BG     C4   23   2.999   2.169   2.702  0.1544 -0.3771 -0.1534
    87AM     C1   24   1.673   2.524   2.107 -0.3620 -0.1203 -0.1234
    87AM     C2   25   1.507   2.668   2.228 -0.0409  0.1677  0.1061
    87AM     C4   26   1.540   2.446   1.992  0.3216 -0.0700  0.1960
    98BG     C1   27   1.321   2.938   2.321 -0.3579  0.0045  0.0469
    98BG     C2   28   1.562   3.203   1.942 -0.1140 -0.0082  0.2311
    98BG     C3   29   1.488   3.224   2.234 -0.1596 -0.5207  0.4146
    98BG     C4   30   1.248   3.043   2.553  0.6064  0.1766 -0.0865
   10W        W   31   0.856   1.101   0.139  0.0543  0.1079 -0.3307
   11W        W   32   0.815   2.750   2.944 -0.2638 -0.0402  0.2615
   12W        W   33   3.314   2.705   1.271  0.0380 -0.0781  0.0501
   13W        W   34   1.530   0.884   4.154  0.3219 -0.2534 -0.0357
   14W        W   35   2.549   1.476   3.945 -0.0599 -0.1442 -0.1306
   15W        W   36   0.988   0.742   2.028 -0.1113  0.1607  0.0453
   16W        W   37   0.581   1.487   0.010  0.1413  0.0976 -0.0687
   17W        W   38   1.168   3.067   1.523  0.0903 -0.1745  0.2183
   18W        W   39   0.234   0.212   1.835 -0.2062 -0.1829 -0.1987
   19W        W   40   0.578   2.234   1.119 -0.0740 -0.2045 -0.2292
   20W        W   41   0.181   3.265   0.655  0.3641  0.0035 -0.2843
   21W        W   42   3.375   2.259   0.240 -0.2300  0.1030 -0.0844
   22W        W   43   3.764   0.216   2.880  0.1336 -0.0079 -0.5482
   23W        W   44   2.768   1.621   3.403 -0.2323  0.3204  0.2901
   24W        W   45   2.099   3.686   3.841  0.2769  0.2236  0.0848
   25W        W   46   3.881   2.279   0.184 -0.0331  0.0835 -0.3095
   26W        W   47   0.454   3.932   0.192  0.0606  0.1483  0.0194
   27W        W   48   2.018   2.804   4.335 -0.1268  0.0771 -0.0199
   28W        W   49   1.854   1.466   0.532 -0.0163  0.0129  0.2709
   29W        W   50   1.696   1.844   4.169  0.0506 -0.1785  0.0954
   30W        W   51   1.022   1.993   1.091 -0.0421  0.0387 -0.1940
   31W        W   52   4.079   0.621   2.780  0.0188 -0.1340  0.2307
   32W        W   53   3.105   3.077   3.510 -0.2106  0.0608  0.1094
   33W        W   54   3.730   2.663   0.476  0.2117  0.1348  0.1437
   34W        W   55   3.540   2.643   2.136 -0.0535  0.0737 -0.2082
   35W        W   56   0.290   3.141   0.212  0.3485  0.4323  0.0631
   36W        W   57   1.640   3.437   0.483  0.0461  0.1325  0.0259
   37W        W   58   3.092   1.383   3.049  0.0219  0.1059 -0.0653
   38W        W   59   0.896   2.313   0.746  0.0422 -0.0284 -0.4284
   39W        W   60   3.614   2.763   4.489 -0.3304  0.0989  0.0159
   40W        W   61   1.823   3.903   3.448 -0.0888 -0.0158  0.0114
   41W        W   62   2.440   0.729   2.040  0.2827 -0.0801 -0.2365
   42W        W   63   0.988   1.445   2.983 -0.1440  0.3407  0.0261
   43W        W   64   1.824   2.280   1.204  0.1003 -0.0796  0.3333
   44W        W   65   4.000   0.066   1.557 -0.1728 -0.0578 -0.2206
   45W        W   66   0.325   0.050   2.287  0.0020  0.3662 -0.2808
   46W        W   67   0.039   4.072   2.861  0.2120 -0.0586 -0.0598
   47W        W   68   0.545   3.429   3.928 -0.0492  0.2135  0.0485
   48W        W   69   1.559   0.279   2.623 -0.1571  0.1072 -0.1237
   49W        W   70   2.287   0.458   1.608 -0.0753  0.3171 -0.4858
   50W        W   71   3.038   4.037   0.166 -0.1799 -0.1994 -0.2787
   51W        W   72   2.586   3.117   1.620  0.1813  0.1022 -0.4016
   52W        W   73   2.904   0.216   2.676 -0.0173 -0.2551 -0.0150
   53W        W   74   1.680   3.153   1.531  0.2522 -0.0620 -0.2694
   54W        W   75   3.371   4.094   2.544  0.0454  0.0186  0.1303
   55W        W   76   0.934   0.741   1.475 -0.1899  0.0355  0.0098
   56W        W   77   0.135   0.649   2.168 -0.1082 -0.1801 -0.1918
   57W        W   78   1.470   3.521   4.484  0.2797  0.3187  0.4052
   58W        W   79   0.406   3.515   1.335  0.1330 -0.3730  0.0094
   59W        W   80   0.561   2.657   0.643 -0.0170  0.0250  0.0675
   60W        W   81   1.612   0.220   3.582  0.4787 -0.0703  0.1300
   61W        W   82   4.094   2.670   4.403 -0.0271 -0.3068  0.1090
   62W        W   83   3.713   2.874   1.572 -0.2764 -0.0464  0.1517
   63W        W   84   3.359   0.585   1.126  0.0747 -0.0546  0.1005
   64W        W   85   1.033   1.963   1.624  0.0854 -0.0506  0.0241
   65W        W   86   3.663   2.352   4.220 -0.1149 -0.1985  0.0507
   66W        W   87   4.100   3.408   1.247  0.1337 -0.1009 -0.4188
   67W        W   88   2.543   2.812   1.140 -0.1402  0.2262 -0.0308
   68W        W   89   3.328   3.577   2.475  0.0838 -0.2772 -0.2750
   69W        W   90   0.677   3.112   0.635  0.0099  0.0265  0.4689
   70W        W   91   1.357   1.597   1.873 -0.2575  0.2941 -0.0825
   71W        W   92   4.143   0.523   0.436  0.2314 -0.1920 -0.0289
   72W        W   93   2.861   2.824   2.889 -0.0528 -0.1608 -0.0773
   73W        W   94   0.559   3.180   2.821  0.1124  0.0796  0.2506
   74W        W   95   3.621   3.477   0.115  0.0462  0.2557 -0.0929
   75W        W   96   2.121   2.531   1.997  0.0086 -0.3533 -0.1507
   76W        W   97   0.414   3.793   1.986 -0.0555 -0.1513  0.2297
   77W        W   98   0.823   3.099   0.042 -0.1595  0.0767 -0.1183
   78W        W   99   1.754   2.460   1.638  0.0437  0.1890 -0.0049
   79W        W  100   4.105   3.552   2.099  0.3258  0.0130  0.1285
   80W        W  101   3.501   0.085   1.672  0.1326  0.1226  0.1919
   81W        W  102   3.950   2.419   1.853  0.0471  0.0081  0.2419
   82W        W  103   3.068   0.511   1.646 -0.2157 -0.2085  0.0063
   83W        W  104   0.590   1.917   2.897 -0.0343 -0.3892 -0.0819
   84W        W  105   0.023   3.585   0.244 -0.0589  0.1916  0.2632
   85W        W  106   1.615   1.230   3.681 -0.2556  0.0372 -0.1187
   86W        W  107   0.560   0.524   1.692 -0.0708 -0.0910  0.2884
   87W        W  108   2.281   1.717   3.626 -0.2097  0.1839 -0.1127
   88W        W  109   1.259   1.177   2.594 -0.1186  0.0758 -0.0616
   89W        W  110   1.281   1.427   4.148  0.1158 -0.2715 -0.0457
   90W        W  111   3.924   3.187   3.430 -0.0591 -0.0562  0.0656
   91W        W  112   1.162   4.139   4.031  0.1375 -0.2718  0.2630
   92W        W  113   2.550   1.211   2.199 -0.1043 -0.1741 -0.1512
   93W        W  114   2.538   3.988   2.641 -0.0701 -0.0344  0.0933
   94W        W  115   2.985   1.799   1.498 -0.0407  0.0524 -0.0851
   95W        W  116   4.096   4.063   2.011 -0.0093  0.1663 -0.0645
   96W        W  117   1.334   3.709   0.933  0.1061  0.1679 -0.0549
   97W        W  118   1.782   2.215   0.065  0.1419 -0.2711  0.0031
   98W        W  119   1.508   0.499   0.623 -0.0600  0.2306  0.0743
   99W        W  120   0.618   3.583   3.431  0.0428  0.1829  0.2226
  100W        W  121   3.001   3.880   2.810  0.1100 -0.0600 -0.0850
  101W        W  122   1.497   0.750   2.679 -0.1829  0.0343  0.1406
  102W        W  123   1.730   1.937   2.330 -0.0867  0.2052 -0.3172
  103W        W  124   1.448   1.832   0.117  0.3628 -0.0498  0.0263
  104W        W  125   2.607   3.321   0.376 -0.0366  0.0843  0.3044
  105W        W  126   1.464   3.418   2.720 -0.3654 -0.1043 -0.1183
  106W        W  127   1.813   3.427   0.938 -0.0166  0.0979 -0.0360
  107W        W  128   0.093   0.643   4.338  0.1592 -0.0603  0.1974
  108W        W  129   1.702   1.411   2.605 -0.2723  0.0661  0.0081
  109W        W  130   2.865   0.738   2.698 -0.2181 -0.1360 -0.1467
  110W        W  131   2.054   0.075   2.635  0.1749  0.3251 -0.2044
  111W        W  132   1.667   0.032   0.524  0.1015 -0.2303 -0.1846
  112W        W  133   2.113   2.335   2.949  0.0224  0.0913  0.4777
  113W        W  134   2.752   1.157   0.739 -0.1432  0.1298  0.0492
  114W        W  135   1.455   1.019   0.671 -0.0162 -0.1574 -0.1882
  115W        W  136   3.969   3.093   0.371  0.1627  0.1168  0.4293
  116W        W  137   1.296   1.345   0.307  0.0180  0.1091  0.2007
  117W        W  138   0.129   3.743   2.473 -0.0057  0.1861 -0.1387
  118W        W  139   3.222   1.820   1.004 -0.1240 -0.1007  0.1646
  119W        W  140   0.754   0.299   4.106 -0.0785 -0.0468  0.0708
  120W        W  141   2.433   2.342   2.340  0.0862  0.1055 -0.0033
  121W        W  142   1.099   2.364   1.929  0.1198  0.0593  0.0527
  122W        W  143   0.833   3.610   1.138 -0.1915 -0.3363  0.3883
  123W        W  144   3.417   2.333   0.835  0.1106 -0.1581  0.2441
  124W        W  145   1.259   0.197   0.353  0.0888 -0.1885 -0.0622
  125W        W  146   2.965   1.944   3.877  0.0756  0.2131 -0.0474
  126W        W  147   3.434   3.950   3.351  0.3168  0.0103 -0.2065
  127W        W  148   2.794   3.559   4.463  0.4736  0.2254 -0.2745
  128W        W  149   0.442   1.561   3.928  0.2660  0.0946  0.1850
  129W        W  150   3.297   3.161   1.557 -0.2439 -0.2321  0.3330
  130W        W  151   2.885   1.179   4.200 -0.0744  0.1532 -0.1669
  131W        W  152   3.540   3.246   3.820 -0.0290  0.0715 -0.2755
  132W        W  153   3.105   1.450   2.522  0.0714  0.0404 -0.2587
  133W        W  154   3.249   1.237   0.022  0.2759 -0.0866 -0.1034
  134W        W  155   0.141   0.344   3.083 -0.4243 -0.0370 -0.0884
  135W        W  156   3.445   1.100   3.301 -0.0963 -0.1287 -0.0984
  136W        W  157   2.483   0.357   2.392 -0.0513 -0.1001 -0.0227
  137W        W  158   0.128   1.298   3.443 -0.1259 -0.0087  0.0073
  138W        W  159   2.206   1.414   0.033  0.1799  0.2596 -0.0647
  139W        W  160   0.314   1.546   1.928  0.2216  0.2686  0.2533
  140W        W  161   4.159   0.620   1.100  0.0832 -0.2186 -0.3413
  141W        W  162   1.917   2.353   0.711 -0.3951  0.0814  0.2305
  142W        W  163   3.210   3.625   3.741  0.1253 -0.1727 -0.0340
  143W        W  164   0.274   1.028   0.061  0.0494  0.1199  0.1415
  144W        W  165   0.028   3.707   1.664 -0.0727 -0.0247  0.2029
  145W        W  166   4.061   1.469   2.323 -0.0991 -0.0726  0.0867
  146W        W  167   3.356   0.206   2.129  0.1114  0.0602  0.1754
  147W        W  168   3.068   1.365   1.109  0.0987 -0.0414  0.2979
  148W        W  169   1.287   3.240   1.039  0.0611 -0.0215 -0.0378
  149W        W  170   2.535   0.718   0.724 -0.1269 -0.3515 -0.0091
  150W        W  171   0.956   4.062   4.474 -0.1635  0.0175 -0.1287
  151W        W  172   0.138   1.381   0.356  0.1176  0.2304 -0.2360
  152W        W  173   0.466   3.985   1.541 -0.2897 -0.1081 -0.1475
  153W        W  174   2.683   0.026   3.844  0.1148 -0.0735  0.2540
  154W        W  175   2.776   1.735   0.564 -0.3271  0.4169 -0.1032
  155W        W  176   0.636   0.983   3.739  0.3124 -0.0224 -0.0004
  156W        W  177   3.912   3.069   2.061 -0.2937 -0.1801  0.1596
  157W        W  178   3.269   0.974   2.790  0.3386 -0.2468  0.1773
  158W        W  179   1.668   2.975   3.848  0.1223  0.1271 -0.1898
  159W        W  180   2.426   3.298   1.182  0.2684 -0.1631 -0.0273
  160W        W  181   3.674   1.923   3.098  0.1378  0.2282  0.0580
  161W        W  182   0.789   3.853   4.038  0.1647 -0.0534 -0.0292
  162W        W  183   2.918   0.529   3.939  0.3225  0.0086 -0.1009
  163W        W  184   1.458   1.983   1.310 -0.0896 -0.0811 -0.0508
  164W        W  185   1.389   2.363   0.968 -0.0576 -0.2487 -0.1882
  165W        W  186   0.677   2.171   0.136 -0.0892  0.1105  0.0154
  166W        W  187   2.171   3.520   3.281 -0.1054 -0.1686 -0.0980
  167W        W  188   1.704   0.245   1.626  0.0092  0.1209 -0.2491
  168W        W  189   4.076   3.145   4.365  0.3387 -0.0307 -0.2506
  169W        W  190   0.019   2.108   1.186  0.3033  0.1227  0.2857
  170W        W  191   3.774   1.038   1.652  0.1302  0.0459  0.1694
  171W        W  192   0.593   3.324   1.968 -0.1687 -0.0345  0.0446
  172W        W  193   1.561   4.010   1.295 -0.3353  0.1262  0.1788
  173W        W  194   0.341   0.450   3.934  0.1071  0.1324  0.0275
  174W        W  195   3.535   3.785   2.892  0.0196 -0.1253 -0.2802
  175W        W  196   4.002   1.920   2.099  0.0673 -0.2409 -0.1426
  176W        W  197   2.539   2.535   3.136 -0.3635 -0.2550 -0.2754
  177W        W  198   1.926   1.025   2.819  0.1565 -0.2488  0.0390
  178W        W  199   1.345   3.975   3.092 -0.2972  0.0029  0.1467
  179W        W  200   3.347   0.284   4.421 -0.0950 -0.1175  0.0784
  180W        W  201   2.716   0.187   4.345 -0.0949  0.2215 -0.0138
  181W        W  202   2.437   0.922   3.984 -0.1113  0.4556  0.3324
  182W        W  203   0.160   2.590   0.937 -0.0630  0.0248  0.2652
  183W        W  204   0.137   1.167   1.511 -0.0625  0.0843  0.0829
  184W        W  205   1.055   0.733   4.236  0.0155 -0.2450 -0.1897
  185W        W  206   1.171   3.377   1.889 -0.0555 -0.2155  0.1816
  186W        W  207   0.378   2.810   3.136  0.0225 -0.1107 -0.1503
  187W        W  208   0.902   0.810   0.648 -0.1775 -0.1394 -0.5210
  188W        W  209   0.804   2.270   3.160 -0.0505  0.2193 -0.0943
  189W        W  210   1.503   2.785   1.192  0.1383  0.1311  0.0192
  190W        W  211   4.019   0.106   2.428 -0.0262 -0.1010 -0.2449
  191W        W  212   3.980   3.972   3.905  0.0376 -0.0861  0.1280
  192W        W  213   1.875   3.862   0.807  0.0462 -0.1426  0.0618
  193W        W  214   1.536   0.761   3.410  0.4425  0.1956  0.1020
  194W        W  215   2.227   1.817   2.300  0.1752 -0.1380 -0.0448
  195W        W  216   0.802   1.217   4.143  0.0549  0.1811 -0.0820
  196W        W  217   2.504   1.877   0.122  0.0562 -0.0484 -0.2585
  197W        W  218   3.126   1.350   0.498  0.1822  0.2839  0.1921
  198W        W  219   3.890   0.874   3.995 -0.0138  0.0575 -0.2664
  199W        W  220   1.019   3.435   4.236  0.2276  0.0724  0.1441
  200W        W  221   0.513   0.983   1.937 -0.0567  0.1059  0.1217
  201W        W  222   3.580   1.510   0.875 -0.0099  0.1547 -0.0157
  202W        W  223   2.839   1.731   4.308 -0.0977  0.3027 -0.0258
  203W        W  224   2.679   1.196   2.756  0.1744  0.0001 -0.1942
  204W        W  225   0.520   3.615   0.554 -0.1289  0.3047  0.1614
  205W        W  226   2.033   1.385   1.113 -0.0655  0.0978  0.0500
  206W        W  227   0.950   1.786   3.274 -0.1140  0.1188 -0.0091
  207W        W  228   2.235   3.157   0.734 -0.1201 -0.0530 -0.2120
  208W        W  229   2.367   3.548   2.170  0.2657 -0.1994  0.3904
  209W        W  230   1.822   1.653   3.707  0.0699  0.1452  0.2332
  210W        W  231   2.347   0.422   0.316 -0.0208 -0.0457  0.1938
  211W        W  232   3.766   1.039   1.176 -0.1204  0.0941 -0.2310
  212W        W  233   2.234   1.803   0.894 -0.0386  0.1623  0.4287
  213W        W  234   2.900   0.957   3.734  0.2211 -0.4544  0.1094
  214W        W  235   2.053   3.348   1.812 -0.1095  0.2554 -0.0179
  215W        W  236   2.120   2.864   1.611 -0.1717 -0.3625  0.2432
  216W        W  237   2.654   0.318   1.864 -0.3755 -0.0589  0.1398
  217W        W  238   4.078   0.175   0.766  0.2676  0.0718 -0.1845
  218W        W  239   3.010   1.994   2.340 -0.0013  0.2057 -0.2045
  219W        W  240   1.779   0.272   4.143 -0.1620  0.2795 -0.0409
  220W        W  241   2.291   2.686   0.725  0.2619  0.2400 -0.3286
  221W        W  242   2.021   3.882   2.270  0.0826 -0.0593  0.3251
  222W        W  243   2.378   1.434   3.094 -0.2057 -0.2596  0.1918
  223W        W  244   3.385   2.266   3.726  0.1076 -0.2124  0.1267
  224W        W  245   3.246   0.941   2.303  0.1599  0.1042 -0.2347
  225W        W  246   4.068   1.807   0.259  0.1493 -0.1609  0.1600
  226W        W  247   3.948   3.404   2.565 -0.2388  0.0411  0.1097
  227W        W  248   2.903   2.726   1.497  0.1577 -0.0750  0.0177
  228W        W  249   0.924   4.024   0.498  0.1649 -0.0390 -0.0295
  229W        W  250   3.061   4.104   4.083  0.0487 -0.2728 -0.1400
  230W        W  251   1.940   0.533   2.394 -0.0110 -0.2282  0.3107
  231W        W  252   2.223   0.518   1.090 -0.2400 -0.1030  0.1012
  232W        W  253   0.363   2.169   0.668 -0.0665 -0.1332 -0.1080
  233W        W  254   0.984   2.731   0.367  0.0932  0.3562  0.2572
  234W        W  255   0.516   1.189   2.857  0.0345 -0.2825  0.2899
  235W        W  256   0.492   0.913   3.279 -0.0295  0.4374 -0.1050
  236W        W  257   0.573   2.038   3.549 -0.0372  0.0177  0.2224
  237W        W  258   3.722   1.930   0.997  0.1241 -0.1491  0.0400
  238W        W  259   0.338   4.113   3.942 -0.0748  0.1414 -0.2553
  239W        W  260   1.031   1.911   0.524  0.2356  0.1110 -0.0995
  240W        W  261   3.765   3.859   2.398  0.3187 -0.1033 -0.1964
  241W        W  262   2.414   0.961   0.261  0.1504 -0.1503  0.1026
  242W        W  263   3.008   0.020   1.797 -0.3489 -0.0996  0.0428
  243W        W  264   1.503   0.638   2.190  0.1925 -0.1455 -0.0249
  244W        W  265   2.793   1.347   1.561 -0.0522  0.1949  0.1236
  245W        W  266   0.564   2.897   4.167 -0.1339  0.1476  0.0835
  246W        W  267   1.897   2.538   2.466  0.2096 -0.1888  0.1168
  247W        W  268   1.399   3.043   0.157 -0.1811 -0.0037 -0.1297
  248W        W  269   1.330   3.978   1.821 -0.0595  0.0866 -0.0620
  249W        W  270   3.184   0.738   4.331 -0.3123  0.1132 -0.0384
  250W        W  271   3.686   1.425   4.120  0.3656 -0.1340 -0.0003
  251W        W  272   3.527   0.281   3.402 -0.0835 -0.0626 -0.0372
  252W        W  273   0.626   2.535   2.199  0.1368 -0.1461 -0.0125
  253W        W  274   3.659   1.527   2.780 -0.0251  0.1806  0.0291
  254W        W  275   0.926   2.994   2.020  0.1462 -0.0896 -0.0606
  255W        W  276   1.600   2.240   2.782  0.1859  0.2468  0.3675
  256W        W  277   0.282   2.300   3.273  0.0089 -0.1551  0.0883
  257W        W  278   3.667   3.229   1.212  0.0337 -0.0083 -0.1844
  258W        W  279   3.414   0.518   3.990 -0.0957  0.1703 -0.0833
  259W        W  280   0.126   3.236   1.778 -0.0985  0.0355  0.2070
  260W        W  281   1.105   0.168   3.314 -0.0689  0.2753 -0.1697
  261W        W  282   1.982   1.297   4.004 -0.0297 -0.5294 -0.0527
  262W        W  283   3.290   1.954   1.922  0.3814  0.1412 -0.2258
  263W        W  284   3.088   2.084   0.619 -0.1905  0.0534  0.2137
  264W        W  285   0.353   3.077   1.057  0.1203 -0.0959 -0.2216
  265W        W  286   0.189   1.892   1.634 -0.4321  0.0316  0.0560
  266W        W  287   0.515   0.587   0.866  0.1545 -0.4682 -0.0697
  267W        W  288   4.157   1.487   4.311 -0.2338 -0.0797 -0.0220
  268W        W  289   3.461   0.666   1.974  0.0930 -0.2797 -0.2213
  269W        W  290   2.955   0.446   0.214  0.3163 -0.0409  0.1455
  270W        W  291   1.944   1.042   2.239 -0.0559  0.0578  0.0095
  271W        W  292   3.592   1.877   0.015 -0.0068  0.1142 -0.0498
  272W        W  293   2.285   3.037   2.136  0.1256  0.2679 -0.0647
  273W        W  294   0.102   2.753   2.187 -0.0565  0.0220 -0.2723
  274W        W  295   0.020   0.168   3.591 -0.0470 -0.0196 -0.0180
  275W        W  296   0.667   1.302   1.599 -0.0151  0.1857  0.1600
  276W        W  297   1.299   2.441   1.475  0.0019 -0.0538  0.3582
  277W        W  298   2.624   3.711   4.021  0.2818 -0.1731  0.5151
  278W        W  299   2.071   3.957   1.764  0.0183 -0.0020 -0.0782
  279W        W  300   0.663   3.146   1.528  0.1917 -0.1341 -0.0155
  280W        W  301   2.872   3.438   1.448  0.0229  0.0899 -0.0639
  281W        W  302   3.857   0.350   1.933 -0.1254 -0.0914  0.1355
  282W        W  303   1.692   3.006   2.542  0.1456  0.0464 -0.1067
  283W        W  304   2.093   3.277   0.232  0.0195 -0.0046  0.0942
  284W        W  305   1.156   1.819   3.841 -0.1630 -0.1483 -0.2856
  285W        W  306   3.553   0.050   3.848  0.0857 -0.1942  0.1136
  286W        W  307   3.259   1.606   4.063  0.0182 -0.2390  0.0432
  287W        W  308   0.348   3.673   2.942  0.1096 -0.0243  0.1470
  288W        W  309   3.741   0.294   0.356  0.1070 -0.1183 -0.0079
  289W        W  310   2.205   2.547   3.655  0.1170  0.4891  0.1424
  290W        W  311   2.376   0.880   3.147 -0.3179 -0.2163 -0.2427
  291W        W  312   0.051   3.116   2.882  0.0065  0.1923 -0.1239
  292W        W  313   0.710   0.544   3.008  0.1155  0.0256 -0.1572
  293W        W  314   1.917   1.089   0.301 -0.0468 -0.0174 -0.2715
  294W        W  315   1.387   3.090   3.473  0.0713  0.1426  0.2162
  295W        W  316   2.692   0.692   4.372  0.0038 -0.0234  0.0400
  296W        W  317   2.056   0.075   1.343 -0.2769 -0.2280  0.1176
  297W        W  318   3.944   2.402   3.828  0.2267  0.0968 -0.1138
  298W        W  319   0.767   2.034   2.175 -0.0291  0.0379  0.0058
  299W        W  320   2.595   2.868   4.031 -0.2155  0.0475  0.3831
  300W        W  321   0.387   0.718   2.637  0.0331  0.0230  0.0242
  301W        W  322   2.827   3.432   0.812 -0.3211  0.3415  0.0168
  302W        W  323   0.388   2.800   1.797  0.1709 -0.0054 -0.2083
  303W        W  324   0.119   3.718   4.224 -0.2420  0.2711 -0.0356
  304W        W  325   2.877   2.382   2.079 -0.2127  0.1935  0.0718
  305W        W  326   0.611   0.340   3.527 -0.1765 -0.0152  0.2691
  306W        W  327   3.770   3.676   3.598 -0.1198 -0.1598  0.3216
  307W        W  328   1.745   1.863   0.966  0.2055  0.1686  0.1099
  308W        W  329   2.242   3.056   3.694  0.0935  0.0857  0.1200
  309W        W  330   0.467   0.894   1.303  0.1864 -0.0635 -0.1680
  310W        W  331   1.662   3.626   1.735 -0.0458  0.1092 -0.1869
  311W        W  332   2.323   1.480   0.524 -0.4436  0.1825 -0.1981
  312W        W  333   4.171   3.242   3.880  0.4340  0.0085  0.0239
  313W        W  334   0.232   2.283   2.042 -0.2218  0.1638  0.2070
  314W        W  335   0.937   2.330   3.660  0.1576 -0.0099  0.0758
  315W        W  336   1.940   2.764   0.322  0.3480  0.3156  0.0781
  316W        W  337   3.775   2.838   3.065 -0.0534  0.1535 -0.0580
  317W        W  338   3.575   3.254   2.830  0.0276 -0.0078 -0.1894
  318W        W  339   1.968   0.712   3.834 -0.1850 -0.0291 -0.0584
  319W        W  340   2.005   0.564   2.857  0.0380 -0.0295  0.4224
  320W        W  341   2.308   2.474   4.165 -0.1829 -0.4091  0.0821
  321W        W  342   0.616   0.434   2.194  0.1338  0.1370  0.0858
  322W        W  343   3.283   1.855   2.749 -0.1067  0.1142 -0.3291
  323W        W  344   2.688   0.838   1.579 -0.0910 -0.1455  0.3387
  324W        W  345   1.267   3.525   3.199  0.1664  0.1972 -0.1721
  325W        W  346   1.475   1.105   3.047  0.1001  0.0561 -0.0041
  326W        W  347   0.820   1.529   2.483 -0.0392  0.0429  0.0860
  327W        W  348   3.233   2.445   1.750  0.4510  0.2430 -0.1416
  328W        W  349   0.123   0.788   3.612  0.0277 -0.3575  0.0096
  329W        W  350   3.225   0.681   3.521 -0.2908 -0.3900  0.0965
  330W        W  351   1.986   0.631   0.531 -0.1066 -0.0539 -0.0755
  331W        W  352   0.389   1.303   2.349  0.1563  0.3367  0.2272
  332W        W  353   0.752   0.970   2.439  0.0831  0.0169 -0.0594
  333W        W  354   1.728   3.934   3.957 -0.2761 -0.1642 -0.1375
  334W        W  355   3.211   2.207   1.352 -0.0078  0.1829  0.0890
  335W        W  356   0.020   1.207   0.880  0.3505  0.1053 -0.1544
  336W        W  357   2.242   2.367   1.522 -0.0154 -0.1081 -0.2301
  337W        W  358   0.408   0.178   0.580  0.0897  0.0506 -0.1807
  338W        W  359   3.479   2.933   0.854  0.0403  0.2865  0.0110
  339W        W  360   2.433   3.847   3.531 -0.4677  0.1545 -0.1163
  340W        W  361   3.447   0.682   0.290  0.0272 -0.1396  0.2390
  341W        W  362   4.132   0.195   4.219 -0.1358  0.0441  0.0103
  342W        W  363   1.380   2.802   1.856 -0.1364 -0.1184 -0.3490
  343W        W  364   2.924   0.948   3.185 -0.2870  0.0120  0.2396
  344W        W  365   1.385   1.548   3.324  0.0731 -0.0059  0.0522
  345W        W  366   3.077   0.143   3.568 -0.4758 -0.1705  0.1947
  346W        W  367   0.757   2.101   4.061 -0.1154  0.3579  0.0772
  347W        W  368   3.132   1.738   0.208  0.0932  0.0092 -0.0441
  348W        W  369   1.306   2.281   2.356 -0.1655 -0.1025 -0.1559
  349W        W  370   3.671   3.752   1.189  0.0888 -0.2283 -0.2436
  350W        W  371   0.278   2.300   2.550 -0.2142 -0.1546  0.0682
  351W        W  372   2.597   3.407   3.536  0.1062  0.0329  0.0986
  352W        W  373   3.830   2.066   1.525  0.4661 -0.0075 -0.0531
  353W        W  374   0.055   2.938   1.378 -0.1135  0.1157 -0.0225
  354W        W  375   3.300   1.038   1.477  0.0179  0.1769  0.1753
  355W        W  376   2.238   2.396   0.236 -0.2062  0.0382 -0.1990
  356W        W  377   4.065   1.623   3.868  0.1978  0.2510 -0.2428
  357W        W  378   2.112   0.495   3.392 -0.0926 -0.0103  0.2125
  358W        W  379   0.344   4.019   3.373  0.2583  0.0628  0.1790
  359W        W  380   3.563   1.924   0.533 -0.1601 -0.0615  0.1285
  360W        W  381   2.617   3.618   2.955  0.0668  0.4304  0.1086
  361W        W  382   1.859   2.477   4.011  0.0605  0.1418  0.0903
  362W        W  383   4.155   1.123   1.950 -0.1801  0.1456 -0.1125
  363W        W  384   1.494   3.663   2.239 -0.0421  0.0825 -0.0860
  364W        W  385   2.554   2.644   1.795  0.2379 -0.2754  0.2254
  365W        W  386   3.191   2.631   0.482 -0.3008 -0.1851  0.1126
  366W        W  387   1.906   1.502   3.144 -0.1926 -0.1017  0.2926
  367W        W  388   3.910   3.453   0.777  0.1474  0.1043 -0.1000
  368W        W  389   2.689   2.189   4.268  0.2576 -0.2956 -0.2947
  369W        W  390   3.951   2.922   2.520 -0.0777  0.1743 -0.2208
  370W        W  391   0.819   2.329   2.583 -0.0270 -0.0392  0.1051
  371W        W  392   0.156   2.086   3.818  0.1597 -0.1129  0.0822
  372W        W  393   3.776   3.368   1.673  0.3981 -0.2079 -0.1843
  373W        W  394   3.189   2.576   3.421  0.0642 -0.2901  0.1836
  374W        W  395   2.059   1.894   0.320 -0.1311  0.2147 -0.3161
  375W        W  396   1.265   3.565   1.435  0.0385 -0.1294 -0.1717
  376W        W  397   2.934   0.873   1.147  0.1358  0.2825 -0.1040
  377W        W  398   0.061   2.710   0.419 -0.0587 -0.0728 -0.0557
  378W        W  399   0.785   3.650   1.650 -0.2421  0.1089  0.1481
  379W        W  400   1.448   1.137   2.164  0.0252 -0.1306 -0.1490
  380W        W  401   1.658   0.090   2.147 -0.0942 -0.2055 -0.5058
  381W        W  402   2.158   3.662   2.721  0.2437  0.1384 -0.0881
  382W        W  403   1.244   0.045   0.838 -0.2680 -0.2431  0.0079
  383W        W  404   1.499   2.650   4.344 -0.1733 -0.2024 -0.3920
  384W        W  405   2.817   3.629   2.401 -0.0672 -0.1208  0.1694
  385W        W  406   1.514   2.046   1.875 -0.4269 -0.1196 -0.1988
  386W        W  407   2.960   0.494   2.182 -0.0936  0.0762 -0.1684
  387W        W  408   1.013   3.456   0.633  0.0487 -0.3094  0.1657
  388W        W  409   1.766   1.280   1.623 -0.1495 -0.1918  0.1437
  389W        W  410   4.141   4.116   0.176 -0.0226 -0.0199 -0.0450
  390W        W  411   4.113   2.039   4.241  0.2286  0.2136 -0.1442
  391W        W  412   0.016   2.606   2.898 -0.1425 -0.0816  0.3455
  392W        W  413   3.589   1.073   0.703 -0.1348  0.1783 -0.1698
  393W        W  414   4.171   2.711   3.455  0.0476 -0.1729 -0.0048
  394W        W  415   0.584   4.066   0.999 -0.2528  0.0027 -0.0390
  395W        W  416   1.943   1.058   3.349  0.0452  0.2754 -0.2909
  396W        W  417   0.355   2.375   4.205 -0.2113 -0.2415  0.3817
  397W        W  418   3.224   1.927   3.397  0.0173 -0.2443  0.1160
  398W        W  419   2.720   2.186   1.598  0.1435  0.4442 -0.1591
  399W        W  420   0.520   1.296   1.073 -0.0465  0.0647  0.2066
  400W        W  421   3.615   1.557   3.598 -0.1197 -0.3416 -0.0005
  401W        W  422   3.496   0.663   3.106  0.5618 -0.1662 -0.3105
  402W        W  423   0.440   2.507   3.727  0.2153 -0.1031 -0.1271
  403W        W  424   2.715   3.241   2.057  0.0876 -0.0639 -0.5999
  404W        W  425   3.751   2.365   2.858  0.4114 -0.4647  0.1093
  405W        W  426   0.862   2.684   1.620 -0.0808  0.3092  0.2488
  406W        W  427   2.788   2.307   0.257  0.5264  0.0675  0.1991
  407W        W  428   3.725   0.561   1.510 -0.0383  0.1204 -0.2359
  408W        W  429   0.569   4.114   2.739 -0.0037  0.0094  0.2310
  409W        W  430   2.222   1.420   2.632 -0.1926  0.0571  0.0093
  410W        W  431   1.397   2.521   3.857 -0.1772 -0.0632  0.2089
  411W        W  432   2.966   3.934   1.396  0.0726  0.1057 -0.3466
  412W        W  433   2.490   1.082   1.160  0.0851 -0.1649  0.1452
  413W        W  434   2.932   3.066   0.148  0.0853 -0.1366 -0.2874
  414W        W  435   3.194   0.066   3.053 -0.1217 -0.1095  0.1378
  415W        W  436   3.601   2.819   3.552 -0.1247 -0.2204  0.0735
  416W        W  437   0.125   2.492   1.498 -0.0193  0.0052 -0.1265
  417W        W  438   1.570   1.242   1.116 -0.0538 -0.0833  0.2235
  418W        W  439   2.516   4.116   1.495  0.2387  0.1997 -0.1535
  419W        W  440   1.062   0.849   2.960  0.0644 -0.1775  0.2459
  420W        W  441   0.637   1.779   1.431  0.1897  0.0865  0.1707
  421W        W  442   3.980   2.227   0.689 -0.3374  0.0085 -0.4625
  422W        W  443   2.372   3.279   4.320 -0.4577 -0.1158  0.1667
  423W        W  444   3.737   1.001   2.758  0.3386 -0.0681 -0.0369
  424W        W  445   2.468   2.824   0.041  0.1037 -0.1231 -0.0319
  425W        W  446   0.829   4.054   3.600  0.1632 -0.0890  0.0881
  426W        W  447   1.951   1.826   2.768  0.2828 -0.0248  0.2063
  427W        W  448   2.711   2.788   3.542 -0.0848 -0.1725 -0.1653
  428W        W  449   2.506   3.979   0.309 -0.0178  0.0439  0.1194
  429W        W  450   2.274   4.145   0.800  0.1652 -0.1890  0.0544
  430W        W  451   2.316   0.450   4.082  0.0918  0.1194 -0.3629
  431W        W  452   3.810   0.684   2.387 -0.1039  0.2560 -0.3436
  432W        W  453   1.742   0.739   0.969  0.1064 -0.3709  0.2282
  433W        W  454   3.362   3.969   0.861 -0.1353  0.3327 -0.0880
  434W        W  455   2.255   1.116   1.836 -0.0073 -0.0074  0.1441
  435W        W  456   2.303   4.108   4.174  0.1520 -0.2410 -0.0295
  436W        W  457   0.555   0.679   4.347 -0.2488  0.1290  0.1358
  437W        W  458   1.305   2.205   3.169 -0.3419  0.3850 -0.0865
  438W        W  459   1.851   0.735   1.833 -0.0736  0.0513  0.2309
  439W        W  460   0.871   0.326   0.673 -0.1303  0.3676  0.0585
  440W        W  461   1.190   3.825   2.609  0.0701 -0.0263  0.0935
  441W        W  462   2.650   3.811   1.068 -0.1064  0.0165  0.0740
  442W        W  463   0.972   1.760   4.408 -0.3014 -0.1877  0.0300
  443W        W  464   1.474   0.783   1.421 -0.2629  0.1932 -0.0050
  444W        W  465   1.111   1.513   1.315  0.1464  0.2527 -0.1017
  445W        W  466   2.878   3.684   1.886  0.0529 -0.1902 -0.1456
  446W        W  467   1.063   3.345   2.385 -0.1418  0.2173  0.0596
  447W        W  468   4.095   1.704   0.746  0.2267 -0.0747 -0.0242
  448W        W  469   3.488   3.388   3.323  0.2661 -0.1535  0.0505
  449W        W  470   3.307   3.637   1.630  0.1284  0.0968  0.1812
  450W        W  471   2.281   1.966   3.195 -0.2976 -0.3643 -0.2465
  451W        W  472   1.026   0.180   2.776 -0.3038  0.0250 -0.3671
  452W        W  473   0.791   1.313   0.602  0.2050  0.0487 -0.2867
  453W        W  474   1.636   4.015   4.464 -0.2699  0.0996 -0.1590
  454W        W  475   0.159   3.637   3.648 -0.3238 -0.2107 -0.1612
  455W        W  476   3.505   1.584   2.298 -0.0301  0.0629 -0.0787
  456W        W  477   2.429   3.609   1.642 -0.1105 -0.0329  0.2705
  457W        W  478   1.513   2.524   0.431  0.1947 -0.0945 -0.0195
  458W        W  479   1.012   3.356   3.710  0.0461 -0.0260 -0.1025
  459W        W  480   1.345   1.610   2.356  0.0849 -0.0056  0.2622
  460W        W  481   2.624   0.118   3.352 -0.0725  0.0612 -0.1737
  461W        W  482   2.644   0.435   1.316  0.1910  0.3004 -0.0585
  462W        W  483   0.069   1.057   2.989  0.1336 -0.1287  0.1213
  463W        W  484   3.285   3.208   4.242  0.4434 -0.1473  0.0097
  464W        W  485   0.620   3.613   2.507  0.0180 -0.0661  0.2692
  465W        W  486   2.591   0.628   3.573  0.0692 -0.2054 -0.0002
  466W        W  487   0.800   1.607   1.977  0.1557  0.2030 -0.3190
  467W        W  488   3.906   1.081   4.435  0.3562 -0.2447 -0.1073
  468W        W  489   2.854   3.291   4.001 -0.3556 -0.0343  0.2844
  469W        W  490   0.604   2.231   1.712  0.2786 -0.3025 -0.0773
  470W        W  491   3.714   1.130   2.172  0.1331 -0.1838  0.1258
  471W        W  492   1.732   0.443   0.148  0.1834  0.2613  0.1508
  472W        W  493   2.031   3.694   4.338 -0.2192  0.1219 -0.1503
  473W        W  494   1.474   1.767   2.887 -0.2777 -0.1729 -0.1939
  474W        W  495   3.008   2.557   2.560 -0.1082 -0.2262  0.0418
  475W        W  496   3.843   2.582   1.189  0.0571  0.0959 -0.1932
  476W        W  497   3.757   0.586   4.391  0.2241  0.0968 -0.0393
  477W        W  498   3.969   2.981   0.849  0.0951 -0.2557  0.1694
  478W        W  499   3.424   3.080   0.302 -0.2330 -0.0348  0.1345
  479W        W  500   0.944   3.444   2.887 -0.0541  0.3102  0.0629
  480W        W  501   2.870   0.999   1.957  0.0055 -0.0021  0.2593
  481W        W  502   0.126   1.567   2.770  0.0121 -0.2137 -0.0343
  482W        W  503   1.072   0.593   2.537 -0.0063  0.0027  0.1469
  483W        W  504   1.029   0.645   3.475  0.0033  0.1736 -0.1613
  484W        W  505   3.989   1.957   3.488 -0.0844 -0.0162  0.2189
  485W        W  506   2.466   2.150   0.598 -0.2136  0.3040 -0.4341
  486W        W  507   2.348   2.840   2.715 -0.3912  0.0499 -0.0162
  487W        W  508   2.099   0.063   0.120 -0.2276  0.1561  0.1923
  488W        W  509   1.736   3.401   3.464 -0.2839  0.1011 -0.0937
  489W        W  510   0.476   2.991   3.623 -0.0258 -0.0857  0.0414
  490W        W  511   1.687   3.941   2.640  0.0604 -0.2966  0.0199
  491W        W  512   3.495   2.715   2.690 -0.1245  0.1259 -0.4771
  492W        W  513   1.206   2.996   4.163  0.0270  0.3189  0.1935
  493W        W  514   3.975   2.393   2.397  0.1245 -0.0576 -0.0591
  494W        W  515   0.867   3.892   3.114  0.1249  0.0125 -0.1329
  495W        W  516   3.869   1.128   3.561 -0.0673  0.1083 -0.1269
  496W        W  517   3.268   3.722   4.314  0.1094 -0.2003  0.0962
  497W        W  518   0.036   3.956   1.195  0.1276  0.0057 -0.2195
  498W        W  519   1.699   1.364   4.413  0.1881  0.3515  0.0375
  499W        W  520   2.339   2.312   1.058 -0.1447 -0.1611 -0.0671
  500W        W  521   0.586   1.405   3.310  0.2172  0.3787 -0.0874
  501W        W  522   3.421   1.331   1.850  0.1497 -0.1515 -0.0166
  502W        W  523   3.423   1.032   3.881 -0.1337  0.1660  0.2266
  503W        W  524   3.723   4.026   4.313 -0.1159  0.3938 -0.0618
  504W        W  525   1.031   1.099   1.041  0.1679  0.2007  0.1245
  505W        W  526   3.674   3.918   0.485 -0.1138 -0.0270  0.1036
  506W        W  527   1.638   2.498   3.386  0.0764  0.0300 -0.1429
  507W        W  528   0.939   0.562   0.190  0.1425  0.0147  0.1531
  508W        W  529   0.196   2.194   0.189  0.2262  0.0802  0.0847
  509W        W  530   2.361   0.877   2.614  0.2790 -0.0274 -0.2220
  510W        W  531   1.237   2.603   2.757 -0.1251  0.2834 -0.3841
  511W        W  532   3.101   3.406   2.910  0.0955 -0.2032  0.0506
  512W        W  533   2.040   2.125   3.702 -0.1982  0.3026 -0.1598
  513W        W  534   1.175   1.149   1.698 -0.2910 -0.1508  0.0022
  514W        W  535   2.050   3.626   1.367 -0.3273 -0.1190  0.2454
  515W        W  536   2.491   0.425   2.911  0.1829 -0.1812 -0.2605
  516W        W  537   0.030   0.637   1.682 -0.3790 -0.1756  0.4076
  517W        W  538   3.315   0.509   2.613 -0.3562 -0.0037 -0.0107
  518W        W  539   2.489   4.061   2.138 -0.0794 -0.2325  0.3470
  519W        W  540   1.180   2.668   3.314  0.1175  0.0571 -0.0331
  520W        W  541   4.058   3.542   3.138  0.1470  0.1080 -0.1058
  521W        W  542   3.705   0.620   0.726  0.2107 -0.1093  0.4258
  522W        W  543   3.838   1.569   1.804 -0.1840 -0.2335 -0.0226
  523W        W  544   0.378   1.885   4.302  0.0788 -0.1820 -0.0721
  524W        W  545   2.538   3.256   2.536 -0.0469 -0.3053  0.0703
  525W        W  546   2.024   0.750   4.345  0.0573 -0.0866  0.0288
  526W        W  547   2.045   2.831   3.286 -0.0922  0.0311  0.3706
  527W        W  548   1.366   3.802   0.369 -0.0385  0.2269  0.2350
  528W        W  549   0.102   2.768   3.951 -0.2817  0.1709  0.2223
  529W        W  550   3.061   2.896   1.937  0.0832  0.3120 -0.2015
  530W        W  551   3.149   3.526   0.327  0.2298  0.1881  0.0309
  531W        W  552   3.119   2.646   4.476  0.1432  0.1927 -0.2477
  532W        W  553   3.954   0.643   3.269  0.3708  0.0060 -0.0846
  533W        W  554   1.526   2.040   0.554 -0.2111 -0.1427  0.3641
  534W        W  555   2.688   2.828   2.316  0.0833  0.0804 -0.0164
  535W        W  556   3.995   1.023   0.456  0.2063  0.0157 -0.1087
  536W        W  557   0.529   2.687   1.281  0.2537 -0.0842 -0.2739
  537W        W  558   3.542   1.485   1.363  0.2537 -0.2486 -0.3350
  538W        W  559   4.170   0.991   2.479  0.1602  0.1035  0.0704
  539W        W  560   3.215   2.276   3.037 -0.1974 -0.0340  0.0177
  540W        W  561   2.929   2.500   1.014 -0.0043  0.3774  0.0907
  541W        W  562   1.984   2.036   1.880 -0.1399 -0.2765  0.1617
  542W        W  563   0.299   0.223   1.272  0.0266 -0.2554 -0.0211
  543W        W  564   1.380   0.772   0.213 -0.1243 -0.0682  0.0503
  544W        W  565   0.890   2.924   2.525 -0.0808 -0.3119 -0.1065
  545W        W  566   0.837   0.324   1.182  0.1736 -0.3222  0.1432
  546W        W  567   3.306   2.933   3.085 -0.0232  0.1092  0.0987
  547W        W  568   1.311   0.515   3.910 -0.1164 -0.1416  0.2535
  548W        W  569   1.158   2.260   0.242  0.0568 -0.1295  0.3049
  549W        W  570   3.291   0.328   0.649  0.0646  0.0191  0.0435
  550W        W  571   3.897   4.086   3.310 -0.1822  0.2626  0.0062
  551W        W  572   1.108   0.197   2.256  0.2960  0.1598 -0.1389
  552W        W  573   2.493   3.113   3.130  0.0910  0.0789  0.5081
  553W        W  574   1.805   1.523   2.048 -0.2833  0.1724 -0.1922
  554W        W  575   2.755   1.957   1.050 -0.0000 -0.0972 -0.2261
  555W        W  576   1.332   3.030   2.999  0.1546 -0.0979  0.0390
  556W        W  577   3.383   3.858   2.082  0.2674  0.1059  0.1830
  557W        W  578   3.437   3.444   0.713 -0.3192  0.1446 -0.0382
  558W        W  579   2.785   2.180   3.396  0.1487 -0.0157 -0.2268
  559W        W  580   2.725   2.883   0.659 -0.0317 -0.0160 -0.0514
  560W        W  581   3.646   1.887   3.984 -0.2273 -0.1928 -0.1173
  561W        W  582   3.683   0.194   1.050 -0.2551 -0.2551  0.1349
  562W        W  583   2.021   2.914   1.160  0.1744  0.0572  0.0187
  563W        W  584   2.929   0.931   0.232  0.1007 -0.1982  0.1285
  564W        W  585   0.562   1.752   0.894  0.2143  0.1672 -0.1501
  565W        W  586   2.987   1.537   2.048 -0.0713 -0.1193 -0.1984
  566W        W  587   0.480   1.804   0.406  0.0216 -0.1829  0.0155
  567W        W  588   3.469   2.219   2.401 -0.2237 -0.0932 -0.3382
  568W        W  589   2.750   0.168   0.787 -0.1374 -0.1332  0.0482
  569W        W  590   3.043   2.989   1.019  0.3968  0.1208  0.2239
  570W        W  591   3.756   3.850   1.763 -0.2747 -0.3243  0.0638
  571W        W  592   0.285   1.853   2.351  0.1871 -0.2634  0.1746
  572W        W  593   1.075   1.197   3.396  0.1914 -0.1930 -0.1133
  573W        W  594   2.925   3.896   0.627  0.1367  0.1017 -0.0278
  574W        W  595   3.934   1.509   3.200 -0.2966  0.0649 -0.1496
  575W        W  596   2.500   2.130   3.841 -0.1120  0.0515  0.1255
  576W        W  597   2.090   0.122   3.714 -0.1467  0.1016 -0.1591
  577W        W  598   1.275   2.227   4.234  0.0459  0.1306 -0.2023
  578W        W  599   0.792   0.012   1.883 -0.1865  0.0806  0.0174
  579W        W  600   2.900   2.424   3.821  0.0509 -0.0267 -0.3231
  580W        W  601   1.763   2.910   0.749  0.3528  0.1173  0.2904
  581W        W  602   0.131   3.931   0.625  0.1635  0.1799  0.0228
  582W        W  603   3.203   3.352   2.047  0.0642 -0.0574 -0.1996
  583W        W  604   1.900   1.741   1.415 -0.2079  0.1359 -0.0668
  584W        W  605   0.212   1.060   4.013 -0.1210 -0.0991 -0.1918
  585W        W  606   2.942   0.468   3.209  0.0013  0.1346 -0.1982
  586W        W  607   2.023   3.135   2.918  0.1641 -0.1182  0.1586
  587W        W  608   3.110   0.145   1.115 -0.0087 -0.1869  0.0327
  588W        W  609   0.861   1.480   3.723 -0.1863  0.1148 -0.0554
  589W        W  610   1.209   0.387   1.807  0.1472 -0.2473 -0.1381
  590W        W  611   3.756   1.432   0.318  0.0586  0.0176  0.2134
  591W        W  612   4.126   2.038   2.984  0.0445 -0.1790  0.2264
  592W        W  613   2.231   4.006   3.064 -0.1196 -0.2281  0.1624
  593W        W  614   1.007   2.816   3.732 -0.2301 -0.1024  0.1296
  594W        W  615   2.690   1.642   2.489  0.1968  0.1249  0.2205
  595W        W  616   3.181   2.829   3.947  0.1890 -0.0430 -0.2087
  596W        W  617   1.833   2.935   2.057  0.0739  0.1514 -0.3399
  597W        W  618   0.430   2.760   2.571  0.3005 -0.0599 -0.1208
  598W        W  619   1.720   2.676   2.948 -0.7153 -0.1467 -0.0353
  599W        W  620   0.396   0.258   0.013 -0.0424  0.2373 -0.3718
  600W        W  621   0.890   3.634   0.174 -0.1392  0.1128  0.0889
  601W        W  622   3.783   2.857   4.008  0.1134  0.0260 -0.2116
  602W        W  623   1.311   0.275   4.377 -0.0962 -0.1350 -0.2932
  603W        W  624   1.931   3.369   2.309 -0.2676 -0.3834 -0.1204
  604W        W  625   3.049   3.131   2.502 -0.1694 -0.1884  0.0759
  605W        W  626   0.244   1.754   3.300 -0.0748  0.1676 -0.0185
  606W        W  627   2.004   3.788   0.352  0.2408  0.0973  0.1212
  607W        W  628   1.039   1.925   2.740 -0.0236 -0.0275  0.0445
  608W        W  629   1.791   0.130   3.082 -0.1140  0.2072 -0.0539
  609W        W  630   1.348   0.274   1.326  0.0551 -0.0326 -0.0062
  610W        W  631   0.970   2.880   1.051 -0.0888 -0.1813  0.2395
  611W        W  632   3.136   1.409   3.624  0.0141  0.0310 -0.1037
  612W        W  633   2.401   1.151   3.538 -0.1367 -0.2046 -0.0182
  613W        W  634   2.247   1.847   4.127  0.2325 -0.0306 -0.1037
  614W        W  635   4.033   1.564   1.254 -0.1720  0.2116  0.0159
  615W        W  636   3.183   3.571   1.119 -0.0702 -0.0375  0.0553
  616W        W  637   1.841   3.266   4.231  0.0717  0.0747 -0.1416
  617W        W  638   1.345   3.888   3.621  0.2571 -0.0919 -0.3487
  618W        W  639   1.873   0.214   0.899 -0.3885  0.0173 -0.0501
  619W        W  640   0.874   3.088   3.298  0.2436  0.1373  0.3401
  620W        W  641   0.496   2.724   0.132  0.0185  0.1381 -0.0648
  621W        W  642   2.764   1.340   0.156 -0.3864  0.0337  0.1745
  622W        W  643   0.856   2.508   4.279  0.0419  0.3241 -0.2444
  623W        W  644   1.494   3.467   3.876  0.1193 -0.1845  0.0931
  624W        W  645   1.163   1.014   3.867  0.0044  0.1301  0.0555
  625W        W  646   1.754   2.014   3.230  0.3304 -0.2250 -0.0710
  626W        W  647   2.788   1.878   2.921 -0.0430 -0.1779 -0.2005
  627W        W  648   0.237   3.188   2.401  0.0238 -0.2352  0.1382
  628W        W  649   3.634   2.385   3.340  0.0928 -0.0498  0.1264
  629W        W  650   0.263   3.271   3.301  0.1980 -0.2105  0.1131
  630W        W  651   1.709   3.702   3.027 -0.1654  0.1505 -0.1622
  631W        W  652   0.448   0.604   0.361 -0.1879 -0.0384 -0.0400
  632W        W  653   2.116   0.241   1.981  0.0710  0.0515  0.0042
  633W        W  654   0.978   4.049   1.422 -0.1589  0.3011 -0.0393
  634W        W  655   1.483   2.121   3.634  0.4440  0.2427  0.4341
  635W        W  656   3.227   2.091   4.225  0.3434 -0.1914 -0.5058
  636W        W  657   3.822   0.460   3.732 -0.1344  0.1109 -0.1971
  637W        W  658   3.084   0.780   0.659 -0.1826 -0.0821 -0.0770
  638W        W  659   2.921   3.837   3.333 -0.1730 -0.2751  0.0620
  639W        W  660   3.512   3.113   2.358 -0.3613  0.0914  0.3215
  640W        W  661   3.909   1.905   2.566  0.2281 -0.2379  0.0100
  641W        W  662   2.361   3.661   0.659 -0.2179  0.1008  0.1406
  642W        W  663   1.357   1.579   0.822 -0.0006  0.0821  0.0671
  643W        W  664   2.031   0.938   1.347  0.0635  0.2643  0.1433
  644W        W  665   1.400   0.454   3.078 -0.1292 -0.2568  0.3904
  645W        W  666   0.396   1.056   0.588  0.0486 -0.0997 -0.1176
  646W        W  667   0.925   3.811   2.148 -0.0541  0.0130 -0.1094
  647W        W  668   3.798   3.558   4.116 -0.4221  0.1263 -0.1931
  648W        W  669   1.275   2.859   0.689 -0.0625  0.1524  0.1083
  649W        W  670   2.951   4.087   2.273  0.4270 -0.0981  0.2981
  650W        W  671   1.240   0.643   0.998 -0.1571 -0.0497  0.0079
  651W        W  672   2.159   1.038   0.809  0.1776  0.0246  0.2150
  652ION     NA  673   4.104   2.798   1.773 -0.1693 -0.0663 -0.0028
  653ION     NA  674   4.044   2.352   3.268 -0.2886  0.0100  0.4488
  654ION     NA  675   1.104   2.621   2.336  0.5737  0.0582  0.1956
  655ION     NA  676   3.639   3.495   2.111 -0.2489 -0.1243  0.0727
  656ION     NA  677   3.866   0.779   1.965 -0.2825  0.1512  0.5231
  657ION     NA  678   0.759   0.147   0.271 -0.4754  0.6616 -0.1391
  658ION     NA  679   0.751   2.653   3.409 -0.0694 -0.0146 -0.1249
  659ION     CL  680   3.468   2.990   1.928  0.3936 -0.4232 -0.1036
  660ION     CL  681   3.637   0.785   3.542  0.1657  0.0205 -0.3030
  661ION     CL  682   2.622   2.518   2.689 -0.6519  0.0960  0.5796
  662ION     CL  683   3.464   1.214   2.511 -0.0579  0.4777 -0.0679
  663ION     CL  684   0.497   2.955   2.176  0.0696  0.1827 -0.1654
  664ION     CL  685   0.498   2.458   2.914  0.3955 -0.2882 -0.3350
  665ION     CL  686   2.816   1.919   1.936  0.0965  0.0003 -0.2455
   4.17213   4.17213   4.48887
