FA2-ASN Glycan in aqueous solution
  686
    1ASN      O    1   2.674   1.538   1.054 -0.1496  0.0683  0.3293
    1ASN     CB    2   2.525   1.642   1.194  0.0917 -0.0541 -0.4886
    21BG     C1    3   2.593   1.893   1.404 -0.3895 -0.5020 -0.2055
    21BG     C3    4   2.357   2.046   1.506  0.1845 -0.3166 -0.3095
    21BG     C2    5   2.293   2.016   1.157  0.0160 -0.3901 -0.3284
    21BG     C4    6   2.630   1.876   1.608  0.2573  0.1556 -0.0457
    32AF     C1    7   2.452   1.673   1.631 -0.3104 -0.0747  0.1516
    32AF     C2    8   2.343   1.707   1.838 -0.2817  0.0436 -0.3505
    32AF     C4    9   2.311   1.465   1.497  0.3121  0.2108 -0.0189
    43BG     C1   10   2.394   2.032   1.893 -0.2929 -0.0780 -0.3631
    43BG     C2   11   2.693   1.653   1.912 -0.1220 -0.2595  0.1323
    43BG     C3   12   2.615   1.914   2.056 -0.0438 -0.0586  0.5024
    43BG     C4   13   2.424   2.255   1.810 -0.3021 -0.2709 -0.0374
    54BM     C1   14   2.131   2.225   2.121  0.3511 -0.0602  0.1767
    54BM     C2   15   1.916   2.329   2.064  0.0930 -0.0438  0.1343
    54BM     C4   16   2.144   2.176   2.327  0.2769  0.1865  0.2293
    65AM     C1   17   2.407   2.052   2.551 -0.2344  0.5274 -0.1979
    65AM     C2   18   2.660   2.060   2.506  0.1650  0.1673 -0.0970
    65AM     C4   19   2.471   1.838   2.637  0.3622  0.0188 -0.0644
    76BG     C1   20   2.867   2.284   2.547  0.4314  0.0152 -0.1111
    76BG     C2   21   2.610   2.250   2.860 -0.2150 -0.1755  0.0745
    76BG     C3   22   2.877   2.272   2.826 -0.1031  0.1953  0.1430
    76BG     C4   23   3.070   2.261   2.568 -0.1181 -0.0173  0.0243
    87AM     C1   24   1.755   2.557   1.994  0.0832  0.0075  0.3431
    87AM     C2   25   1.568   2.709   2.149  0.0471  0.4420 -0.2305
    87AM     C4   26   1.577   2.461   1.882  0.0663 -0.2182 -0.1126
    98BG     C1   27   1.401   3.044   2.214 -0.3023  0.2073  0.2232
    98BG     C2   28   1.625   3.262   1.873 -0.0248 -0.1372 -0.2968
    98BG     C3   29   1.534   3.291   2.171 -0.1130 -0.4459 -0.0254
    98BG     C4   30   1.316   3.174   2.418 -0.1226 -0.1229  0.1444
   10W        W   31   1.842   0.649   0.040  0.0178 -0.1495  0.0271
   11W        W   32   1.586   2.910   0.655  0.1716 -0.2972 -0.2622
   12W        W   33   2.288   3.185   3.646 -0.0436  0.0506 -0.2057
   13W        W   34   0.871   2.578   3.341 -0.0559  0.3143 -0.0769
   14W        W   35   1.390   1.116   0.986  0.0271  0.0360  0.0618
   15W        W   36   3.634   0.133   3.472  0.1888 -0.1403 -0.0078
   16W        W   37   1.896   2.681   3.507 -0.0452 -0.2331 -0.3790
   17W        W   38   0.944   3.988   2.030 -0.0111  0.0555  0.0210
   18W        W   39   4.041   0.446   0.248  0.1251  0.0014 -0.0730
   19W        W   40   0.142   0.274   2.714 -0.3196 -0.0127 -0.0571
   20W        W   41   3.762   0.489   4.054 -0.1616 -0.0411 -0.2272
   21W        W   42   3.475   2.787   3.812 -0.2294 -0.0684 -0.1413
   22W        W   43   0.066   0.027   0.258  0.0618  0.2161 -0.2323
   23W        W   44   2.467   3.266   0.309 -0.0825 -0.3213 -0.1290
   24W        W   45   1.397   2.354   0.458  0.2244 -0.2520  0.1960
   25W        W   46   4.118   0.547   3.154 -0.0134  0.3687  0.3809
   26W        W   47   0.012   2.668   0.238 -0.0073  0.1189 -0.0705
   27W        W   48   1.506   1.542   4.188  0.4176 -0.0284  0.4049
   28W        W   49   3.755   1.591   0.623  0.0223 -0.1998 -0.0565
   29W        W   50   1.429   2.242   2.878  0.0437  0.0691  0.2335
   30W        W   51   1.897   2.421   3.026 -0.0287  0.1352 -0.0010
   31W        W   52   1.103   0.803   1.763 -0.1722 -0.0540  0.1294
   32W        W   53   2.890   3.533   1.076  0.1494  0.2698  0.2825
   33W        W   54   3.252   1.462   4.071  0.2534 -0.3146  0.2465
   34W        W   55   2.831   1.221   4.265 -0.0907  0.0274 -0.4486
   35W        W   56   2.200   1.803   2.205  0.0076  0.2497  0.0543
   36W        W   57   2.704   0.778   0.559 -0.0190 -0.1461 -0.2768
   37W        W   58   3.326   0.853   0.705  0.0007 -0.0668 -0.1378
   38W        W   59   3.244   2.194   1.888 -0.0345  0.2678  0.0546
   39W        W   60   3.765   2.662   3.429  0.0708 -0.1361 -0.1111
   40W        W   61   4.234   4.044   1.799 -0.0474 -0.2348  0.0079
   41W        W   62   0.123   4.185   2.437  0.0554 -0.1879  0.0898
   42W        W   63   1.490   1.058   4.260 -0.0486 -0.0810  0.2457
   43W        W   64   1.963   2.715   4.049 -0.0946  0.6840 -0.0460
   44W        W   65   3.980   2.822   0.988  0.2347  0.2761  0.1321
   45W        W   66   3.970   1.779   2.865 -0.0941  0.0911  0.2056
   46W        W   67   1.782   4.082   2.111 -0.0628 -0.3157 -0.1041
   47W        W   68   4.233   3.581   3.655 -0.2061 -0.0164  0.0195
   48W        W   69   2.703   2.625   2.674 -0.1539 -0.1261 -0.1361
   49W        W   70   2.675   3.156   1.591  0.0110  0.3553  0.2007
   50W        W   71   3.629   2.131   4.172  0.1306 -0.0295  0.0139
   51W        W   72   3.861   3.084   2.997  0.0967  0.1352 -0.1449
   52W        W   73   1.074   0.091   1.174  0.1056 -0.1548 -0.2147
   53W        W   74   1.863   0.679   3.777 -0.1151  0.2109  0.1548
   54W        W   75   0.174   1.104   0.853  0.0151  0.2020  0.1306
   55W        W   76   2.664   1.604   2.379 -0.1502  0.3054 -0.2934
   56W        W   77   1.859   2.612   0.992 -0.1326  0.0264  0.0703
   57W        W   78   0.725   2.580   2.887 -0.0861 -0.0804 -0.0743
   58W        W   79   3.009   1.841   1.740 -0.0105  0.2037  0.0745
   59W        W   80   2.461   3.106   4.149  0.1499 -0.2088 -0.1685
   60W        W   81   0.544   2.760   0.409  0.0621 -0.0883  0.0070
   61W        W   82   1.932   3.558   1.108  0.2669  0.0800 -0.0582
   62W        W   83   3.770   2.374   1.071 -0.1681 -0.2991  0.0936
   63W        W   84   2.027   0.167   3.029  0.1635  0.1183 -0.1495
   64W        W   85   1.027   1.293   0.717 -0.3063 -0.3877  0.2772
   65W        W   86   3.264   1.346   0.648 -0.0947 -0.1000  0.2998
   66W        W   87   0.826   0.352   0.831  0.0716 -0.0665 -0.0258
   67W        W   88   3.299   4.073   3.417 -0.3893  0.0214 -0.2379
   68W        W   89   1.347   4.108   1.610 -0.0241 -0.2861  0.1262
   69W        W   90   2.553   0.281   3.225 -0.2120 -0.4337  0.0775
   70W        W   91   3.301   1.275   3.387  0.1910 -0.0544 -0.0514
   71W        W   92   1.130   2.209   3.664 -0.3257  0.0669  0.1032
   72W        W   93   3.283   3.758   0.776 -0.0496 -0.1034  0.0963
   73W        W   94   1.039   0.805   3.976  0.1094  0.4032 -0.2108
   74W        W   95   3.952   3.319   1.290  0.1435 -0.3050  0.0518
   75W        W   96   3.386   0.000   2.997 -0.0380 -0.1124 -0.3131
   76W        W   97   1.563   0.863   3.434  0.2189  0.1250  0.0732
   77W        W   98   2.886   3.503   0.093 -0.0374 -0.1763 -0.0419
   78W        W   99   1.059   3.498   0.809  0.0510 -0.0569 -0.0237
   79W        W  100   0.702   2.999   3.647  0.0163  0.0450  0.4318
   80W        W  101   2.428   3.810   0.357  0.1467  0.0492  0.1984
   81W        W  102   0.862   1.785   0.746 -0.2567  0.0676  0.0790
   82W        W  103   0.396   1.599   1.677  0.0061 -0.0308 -0.2307
   83W        W  104   4.120   1.560   3.782  0.3959 -0.1090 -0.1893
   84W        W  105   0.295   3.711   1.925 -0.0228  0.4646  0.1390
   85W        W  106   0.627   1.529   4.133  0.0370  0.1580  0.0585
   86W        W  107   3.134   0.608   4.102  0.0596  0.0263  0.0022
   87W        W  108   2.588   0.894   1.721  0.2597  0.0290  0.0824
   88W        W  109   1.912   3.559   2.049 -0.2063  0.0216  0.1065
   89W        W  110   3.672   3.678   2.196 -0.1275  0.1302  0.0643
   90W        W  111   1.488   0.737   2.588  0.1234  0.0423 -0.1191
   91W        W  112   1.518   0.884   0.478  0.3247  0.2531  0.0698
   92W        W  113   3.055   1.014   2.617 -0.1354  0.0505 -0.0685
   93W        W  114   1.101   4.055   3.423 -0.1142 -0.0393  0.2593
   94W        W  115   0.661   2.038   4.094  0.4711  0.0229 -0.0590
   95W        W  116   4.034   0.873   1.691 -0.1881  0.1199  0.0652
   96W        W  117   1.070   1.287   4.137  0.0153 -0.3132 -0.0999
   97W        W  118   2.034   3.582   3.438  0.0123 -0.0227  0.0289
   98W        W  119   3.787   0.774   0.525 -0.1189  0.1798  0.0050
   99W        W  120   0.915   3.278   1.246  0.2085 -0.0430  0.2914
  100W        W  121   3.618   1.748   3.846  0.2799  0.1661  0.2610
  101W        W  122   1.063   1.799   3.893 -0.1552  0.0180 -0.1254
  102W        W  123   0.510   3.337   1.504 -0.1697  0.4161 -0.0550
  103W        W  124   4.283   3.299   2.767  0.0517 -0.0243  0.3536
  104W        W  125   0.282   0.899   2.063 -0.0194  0.0904 -0.0827
  105W        W  126   2.422   1.933   0.014  0.1325  0.0683  0.0412
  106W        W  127   2.708   0.722   0.058  0.0119  0.0598 -0.1229
  107W        W  128   4.212   3.638   2.273  0.2496 -0.0374 -0.2539
  108W        W  129   0.679   1.273   3.007  0.0732 -0.3834  0.1038
  109W        W  130   3.258   0.444   1.227 -0.0681 -0.0334  0.3191
  110W        W  131   2.884   4.257   1.436  0.1010  0.0093  0.0845
  111W        W  132   4.225   1.553   3.274  0.0053  0.1106 -0.0384
  112W        W  133   3.307   0.747   3.608  0.1804  0.2115  0.0828
  113W        W  134   1.258   3.718   0.399  0.0590  0.0821 -0.3933
  114W        W  135   3.747   0.630   1.015  0.3722  0.0752  0.0114
  115W        W  136   4.229   0.578   0.692 -0.1599 -0.3478 -0.2787
  116W        W  137   2.477   4.212   1.727  0.0287 -0.0646 -0.1358
  117W        W  138   1.133   1.166   3.233  0.6302 -0.1974 -0.1360
  118W        W  139   1.422   0.354   3.706  0.1015  0.0972 -0.1107
  119W        W  140   1.953   1.749   4.278  0.0368 -0.2014 -0.3657
  120W        W  141   3.183   2.272   3.073  0.2498 -0.1136 -0.0529
  121W        W  142   3.692   3.123   4.135 -0.0569  0.0907 -0.2032
  122W        W  143   4.048   3.584   1.779  0.1369  0.0490 -0.2152
  123W        W  144   0.586   1.050   0.564 -0.0535  0.1168 -0.1068
  124W        W  145   2.713   3.760   1.510 -0.1821  0.4225 -0.2456
  125W        W  146   3.252   2.495   4.112  0.0316  0.1238  0.0721
  126W        W  147   4.173   2.239   1.949 -0.1821 -0.0507 -0.0315
  127W        W  148   0.760   3.737   0.408  0.0337  0.0915 -0.1684
  128W        W  149   1.952   1.771   0.905  0.1151  0.1516  0.1250
  129W        W  150   0.213   0.808   1.492 -0.0519  0.0980 -0.0352
  130W        W  151   4.094   0.051   3.406  0.0714  0.2348 -0.2385
  131W        W  152   1.265   2.627   2.366 -0.2396 -0.0904 -0.2570
  132W        W  153   0.636   1.870   2.399  0.3038  0.2039 -0.0094
  133W        W  154   3.498   0.978   1.233 -0.0704  0.0622 -0.3906
  134W        W  155   0.555   3.978   2.305  0.0996  0.3008  0.0957
  135W        W  156   2.268   2.438   0.035 -0.0030 -0.2280  0.4417
  136W        W  157   0.898   1.438   1.743 -0.2689  0.2478  0.1947
  137W        W  158   2.196   1.319   2.350  0.1090 -0.1949 -0.2668
  138W        W  159   1.689   0.298   2.352  0.0737  0.2964  0.0019
  139W        W  160   1.128   3.544   4.244 -0.1475  0.0677 -0.1058
  140W        W  161   1.649   1.007   2.939  0.1471  0.4081 -0.1976
  141W        W  162   3.487   3.446   0.417  0.1764  0.1011 -0.1268
  142W        W  163   1.315   3.834   2.924  0.1876 -0.0159 -0.2194
  143W        W  164   0.294   3.950   0.751  0.3195  0.0327 -0.0402
  144W        W  165   2.601   3.202   0.824  0.0018 -0.0190  0.0093
  145W        W  166   0.335   2.930   4.219  0.2289  0.1720 -0.0715
  146W        W  167   2.668   4.042   1.081  0.1783 -0.1433  0.0458
  147W        W  168   3.143   3.632   2.223  0.2345  0.0907  0.1421
  148W        W  169   0.620   4.214   3.641 -0.1137  0.4195  0.0347
  149W        W  170   3.833   1.143   0.869  0.1728  0.2762  0.0890
  150W        W  171   1.448   3.880   0.820  0.3896 -0.0859  0.3114
  151W        W  172   0.129   2.999   0.661 -0.4198 -0.0968  0.0168
  152W        W  173   3.873   3.509   0.138 -0.1864  0.2843  0.0357
  153W        W  174   2.334   4.062   3.354 -0.2774  0.2327 -0.1747
  154W        W  175   1.024   2.718   1.338 -0.0498  0.2241 -0.1743
  155W        W  176   0.121   3.322   0.297 -0.0476  0.0190  0.0813
  156W        W  177   1.016   3.013   4.247  0.0837 -0.1196  0.0386
  157W        W  178   0.041   2.451   2.662  0.1952 -0.0947 -0.0900
  158W        W  179   0.523   4.156   1.785 -0.0381  0.1358  0.0050
  159W        W  180   1.769   1.080   2.448  0.1503  0.0213 -0.2778
  160W        W  181   1.025   2.695   3.866  0.3702 -0.0414  0.0909
  161W        W  182   0.582   0.548   1.808 -0.1350 -0.1333 -0.2686
  162W        W  183   0.280   3.788   0.263 -0.1990 -0.0320 -0.0988
  163W        W  184   0.640   3.015   0.891 -0.2440 -0.1071 -0.2569
  164W        W  185   2.771   2.733   0.720 -0.1670  0.2482 -0.1427
  165W        W  186   1.011   2.130   3.153  0.1677  0.1310  0.1607
  166W        W  187   0.594   2.004   3.443 -0.1035  0.0383  0.1599
  167W        W  188   2.187   3.097   3.202  0.2119 -0.0512 -0.0261
  168W        W  189   0.894   1.611   3.377 -0.0831  0.0628  0.2955
  169W        W  190   2.890   1.278   2.080 -0.0802  0.0826  0.1263
  170W        W  191   2.709   1.594   0.322  0.3609  0.4505  0.2272
  171W        W  192   2.838   3.334   3.854 -0.1972 -0.2962 -0.0424
  172W        W  193   3.687   1.342   0.053  0.3812 -0.1839 -0.0752
  173W        W  194   3.107   0.305   3.329  0.4166  0.0939 -0.1048
  174W        W  195   3.477   0.207   2.022  0.1238 -0.1971 -0.0577
  175W        W  196   2.073   0.248   3.515  0.0188  0.2453  0.2859
  176W        W  197   2.699   3.151   2.849 -0.1504  0.0912  0.0272
  177W        W  198   2.750   0.475   1.402 -0.1376 -0.0508 -0.1186
  178W        W  199   3.714   3.539   3.842 -0.1480  0.1992 -0.3008
  179W        W  200   3.125   1.535   2.542 -0.0091  0.1233  0.0670
  180W        W  201   2.459   1.129   0.342  0.0425  0.0410 -0.0926
  181W        W  202   4.274   1.292   4.198  0.0861 -0.2166  0.0513
  182W        W  203   3.679   0.516   1.480  0.1425 -0.3402 -0.3448
  183W        W  204   3.918   3.666   2.811  0.0254 -0.1259 -0.1194
  184W        W  205   3.421   3.032   1.715 -0.0196  0.1000 -0.0876
  185W        W  206   1.701   2.975   3.140  0.0576 -0.3007  0.6531
  186W        W  207   0.411   1.554   0.702 -0.1830  0.0525 -0.2384
  187W        W  208   2.072   2.039   0.386 -0.0929 -0.0592 -0.2585
  188W        W  209   3.298   2.611   0.726  0.1662 -0.1015 -0.0976
  189W        W  210   0.149   0.431   2.239 -0.1390 -0.2691  0.0948
  190W        W  211   0.967   2.995   2.168 -0.0151 -0.2661 -0.1651
  191W        W  212   1.218   2.662   2.988 -0.2850 -0.2896 -0.0565
  192W        W  213   3.354   1.588   3.018  0.2934 -0.2241 -0.0036
  193W        W  214   0.981   3.462   3.560 -0.0725  0.1538  0.1909
  194W        W  215   1.403   1.256   1.680 -0.1462 -0.0427  0.2352
  195W        W  216   2.931   2.946   1.976 -0.1503 -0.0869 -0.2450
  196W        W  217   1.821   3.030   2.257 -0.0268 -0.1268  0.3651
  197W        W  218   0.149   3.038   1.171  0.2237  0.1680  0.1128
  198W        W  219   1.189   4.207   0.556  0.0492  0.0451  0.0628
  199W        W  220   0.166   1.719   0.099  0.0358  0.1435 -0.0605
  200W        W  221   2.405   4.033   2.834  0.1680  0.1159 -0.0526
  201W        W  222   3.062   3.110   0.558 -0.1564  0.0259  0.0111
  202W        W  223   2.945   0.072   4.139 -0.0064 -0.1526  0.1356
  203W        W  224   2.389   1.517   2.890 -0.1249  0.1216  0.0637
  204W        W  225   3.657   0.269   0.645 -0.0912 -0.2098  0.0811
  205W        W  226   3.140   2.004   3.963 -0.1979 -0.2079  0.0973
  206W        W  227   0.402   2.280   2.193 -0.3781  0.0053 -0.0556
  207W        W  228   1.536   1.965   3.962  0.4348  0.0708 -0.1331
  208W        W  229   1.476   3.137   1.544 -0.0309 -0.1015 -0.3542
  209W        W  230   4.203   1.451   0.441  0.0755 -0.0712  0.0796
  210W        W  231   1.546   3.981   2.540  0.3523 -0.3230 -0.2684
  211W        W  232   3.802   1.308   1.908 -0.1229 -0.1374 -0.0393
  212W        W  233   2.025   0.354   0.960  0.1841 -0.2862  0.0810
  213W        W  234   2.004   3.709   2.564  0.0399 -0.3688  0.1941
  214W        W  235   2.039   2.537   0.512 -0.5427  0.0983  0.1551
  215W        W  236   0.667   0.797   2.932  0.0240 -0.2320  0.0398
  216W        W  237   2.193   2.909   1.378 -0.0058 -0.1173 -0.0671
  217W        W  238   2.831   0.226   1.912  0.0317  0.2148  0.0703
  218W        W  239   2.670   2.283   1.449  0.0092  0.4087  0.1127
  219W        W  240   3.185   0.513   1.707  0.4449 -0.1552 -0.4420
  220W        W  241   1.767   3.070   1.150  0.1924  0.1450 -0.1118
  221W        W  242   2.923   2.711   3.152 -0.0574  0.0653 -0.2006
  222W        W  243   2.871   3.871   4.093  0.1490 -0.1730 -0.1515
  223W        W  244   3.024   0.819   3.182 -0.1753 -0.1618  0.1101
  224W        W  245   0.457   0.371   1.311 -0.0535 -0.0726 -0.3764
  225W        W  246   3.277   4.173   1.084 -0.2082 -0.4167 -0.4496
  226W        W  247   2.628   1.702   3.334  0.1728  0.1027 -0.0739
  227W        W  248   0.562   1.105   1.595 -0.0149  0.0173 -0.1056
  228W        W  249   1.890   1.244   0.210  0.1054  0.1477  0.3473
  229W        W  250   2.462   4.227   3.998  0.0952 -0.0178  0.2305
  230W        W  251   3.875   3.150   2.229  0.0884  0.0109  0.1235
  231W        W  252   3.288   1.066   0.192  0.2003 -0.4687 -0.2215
  232W        W  253   2.345   3.535   1.768 -0.1782 -0.2610  0.0606
  233W        W  254   1.958   3.698   0.560 -0.2609  0.2823  0.1126
  234W        W  255   1.495   2.964   4.005  0.0785 -0.1692  0.1589
  235W        W  256   0.417   3.424   2.424  0.0642  0.1459  0.0008
  236W        W  257   0.705   1.728   1.223  0.0619  0.3385 -0.0839
  237W        W  258   1.951   3.315   1.552  0.0579 -0.0592 -0.1464
  238W        W  259   0.422   3.790   3.166 -0.2417 -0.2251  0.3298
  239W        W  260   1.720   2.189   0.776 -0.1010  0.1036 -0.0501
  240W        W  261   0.507   3.643   3.616  0.0898  0.0629  0.1564
  241W        W  262   2.037   2.925   0.198 -0.0308  0.4481 -0.2423
  242W        W  263   1.615   3.317   0.071 -0.4186 -0.0045  0.2869
  243W        W  264   0.461   3.083   1.919 -0.1856 -0.0888 -0.0566
  244W        W  265   3.565   2.901   2.595 -0.0680  0.3696  0.0407
  245W        W  266   3.534   3.154   3.366  0.2208 -0.1320 -0.2460
  246W        W  267   1.374   1.378   2.718 -0.1585 -0.0225 -0.1833
  247W        W  268   0.766   4.171   3.069  0.0594 -0.1990 -0.0528
  248W        W  269   2.045   2.955   2.781  0.0858 -0.1866  0.3491
  249W        W  270   3.218   4.195   0.599  0.0528 -0.3711 -0.0845
  250W        W  271   3.443   1.022   4.024  0.0585  0.2593  0.1667
  251W        W  272   2.242   3.329   2.395  0.0208  0.0658 -0.2281
  252W        W  273   4.106   3.404   0.732 -0.0179 -0.2269 -0.1745
  253W        W  274   1.537   2.899   2.655  0.1730  0.1440  0.0352
  254W        W  275   1.903   1.427   2.818  0.1782 -0.1283 -0.2243
  255W        W  276   3.068   2.922   2.541  0.1708  0.3752 -0.2445
  256W        W  277   2.565   1.003   2.351  0.2130  0.1272  0.2122
  257W        W  278   3.205   3.846   1.503  0.1116 -0.1503  0.2214
  258W        W  279   2.634   2.795   1.212  0.2218 -0.3044  0.0274
  259W        W  280   0.238   1.492   1.254 -0.0065  0.0257  0.0381
  260W        W  281   4.120   1.761   1.531 -0.1639 -0.2325 -0.2418
  261W        W  282   3.954   4.105   2.600 -0.3143  0.0932 -0.2756
  262W        W  283   4.098   2.328   3.164 -0.1591 -0.1982 -0.0599
  263W        W  284   1.594   3.414   0.700  0.4069  0.0116 -0.1894
  264W        W  285   0.349   1.738   3.804  0.2016 -0.0519 -0.0811
  265W        W  286   2.574   2.656   1.805  0.2797 -0.1498  0.1284
  266W        W  287   2.971   0.396   2.408 -0.2367 -0.0765  0.2936
  267W        W  288   1.667   3.750   1.638 -0.2364  0.1398  0.1250
  268W        W  289   2.982   1.718   0.706 -0.0242 -0.2693  0.0972
  269W        W  290   0.331   1.293   0.253  0.1204  0.0346  0.0456
  270W        W  291   3.377   2.232   0.334 -0.1876 -0.0371  0.0753
  271W        W  292   2.702   2.209   3.258 -0.1056 -0.0500 -0.3214
  272W        W  293   1.033   4.079   2.523 -0.0137  0.0679 -0.1747
  273W        W  294   3.116   1.917   3.473  0.1393  0.1141 -0.0954
  274W        W  295   2.471   0.635   0.986 -0.2608 -0.0545 -0.1505
  275W        W  296   1.347   1.760   3.500 -0.0768 -0.2117 -0.4131
  276W        W  297   2.205   0.078   2.122  0.2864  0.2853 -0.0475
  277W        W  298   2.394   3.540   3.040  0.1077 -0.0896 -0.1362
  278W        W  299   3.912   1.762   0.152 -0.0417 -0.1856 -0.1910
  279W        W  300   1.283   2.775   1.841  0.1466 -0.0500  0.2606
  280W        W  301   3.475   3.002   0.867  0.4715 -0.0809  0.0678
  281W        W  302   4.232   3.815   3.231  0.0419  0.0650  0.1356
  282W        W  303   0.581   4.227   0.325 -0.1428 -0.1781 -0.3242
  283W        W  304   3.339   4.034   0.093  0.2024  0.1210 -0.2062
  284W        W  305   0.160   2.703   3.588  0.2916  0.1459  0.1969
  285W        W  306   0.455   2.223   2.717 -0.1597  0.0901  0.2367
  286W        W  307   2.163   0.919   0.656 -0.0568 -0.2672  0.1401
  287W        W  308   2.085   0.669   3.159 -0.0056  0.0205  0.1015
  288W        W  309   0.731   3.334   3.991 -0.1648  0.1805  0.1328
  289W        W  310   1.323   1.770   2.938 -0.3665  0.1971 -0.0321
  290W        W  311   2.146   2.501   1.679  0.0693  0.0217  0.1907
  291W        W  312   0.096   0.308   1.715 -0.4167  0.2167  0.0657
  292W        W  313   0.997   0.750   0.379  0.2534 -0.0051 -0.2296
  293W        W  314   3.002   0.775   2.080  0.0507  0.3219  0.1815
  294W        W  315   0.685   0.945   0.056  0.1953 -0.3245  0.1602
  295W        W  316   0.031   0.903   0.266 -0.1925 -0.0802  0.0807
  296W        W  317   1.243   1.810   2.411 -0.1497 -0.0490  0.1971
  297W        W  318   2.770   4.220   3.615 -0.2145 -0.1562  0.1665
  298W        W  319   3.890   3.091   3.679  0.0098  0.1480 -0.0740
  299W        W  320   4.103   2.896   2.582 -0.0576  0.0752 -0.0795
  300W        W  321   0.399   3.425   0.682 -0.3537 -0.2720 -0.1742
  301W        W  322   2.870   2.010   1.117 -0.1970 -0.1678 -0.1472
  302W        W  323   1.853   1.207   3.920 -0.2431  0.1246  0.2965
  303W        W  324   1.323   3.286   2.924 -0.2791 -0.0445  0.0860
  304W        W  325   0.604   2.465   3.763 -0.2535  0.0404 -0.3233
  305W        W  326   1.246   1.669   1.394 -0.1470  0.2658 -0.1655
  306W        W  327   1.060   0.815   0.903 -0.0204  0.1284  0.2225
  307W        W  328   2.113   0.885   1.996 -0.0689  0.0031 -0.1307
  308W        W  329   0.288   0.459   3.156 -0.1470  0.1242  0.2159
  309W        W  330   4.267   0.711   4.054  0.2116  0.2123  0.0345
  310W        W  331   3.994   3.076   0.413 -0.1932 -0.2172  0.0392
  311W        W  332   3.909   1.076   3.869 -0.1729  0.3423 -0.1549
  312W        W  333   0.481   0.575   0.265 -0.3003  0.0756  0.4989
  313W        W  334   0.079   1.121   3.553 -0.1054  0.2442 -0.1352
  314W        W  335   1.064   1.228   1.294 -0.0373 -0.1503  0.2083
  315W        W  336   4.150   1.102   1.264  0.1907 -0.0887 -0.1670
  316W        W  337   0.958   0.329   2.648 -0.0122  0.0624  0.1683
  317W        W  338   3.266   0.522   2.820 -0.3139  0.2220  0.2746
  318W        W  339   0.589   1.204   1.080  0.1261  0.0772  0.1046
  319W        W  340   1.788   1.294   0.656  0.3285 -0.0281  0.0543
  320W        W  341   0.170   3.821   2.757  0.3239  0.0606 -0.1821
  321W        W  342   0.590   3.648   1.097  0.1127  0.0230  0.0575
  322W        W  343   1.891   3.524   3.940  0.2967 -0.1955  0.0006
  323W        W  344   1.800   0.392   1.378  0.1217  0.2034 -0.3111
  324W        W  345   0.463   0.276   4.129  0.1715  0.0573 -0.1186
  325W        W  346   1.872   1.937   2.601  0.0727 -0.2848 -0.0441
  326W        W  347   1.321   2.211   1.590  0.1026  0.1143  0.0755
  327W        W  348   2.982   2.252   0.643 -0.1477 -0.4269 -0.3748
  328W        W  349   3.315   3.411   1.318 -0.0776  0.3600  0.0967
  329W        W  350   1.332   0.614   1.326 -0.0707  0.3114  0.1481
  330W        W  351   0.200   3.845   1.421  0.0054 -0.5489 -0.0126
  331W        W  352   3.225   3.084   4.244  0.3090  0.0388  0.0428
  332W        W  353   0.261   3.200   3.681 -0.2535  0.3375 -0.1478
  333W        W  354   1.184   3.023   0.917 -0.1092  0.1298  0.1647
  334W        W  355   1.980   2.232   1.286 -0.0592  0.2147 -0.0309
  335W        W  356   3.526   0.727   2.414 -0.0278  0.1915  0.0948
  336W        W  357   0.912   3.073   1.683 -0.0518  0.1395 -0.5990
  337W        W  358   2.556   2.966   2.417  0.0853 -0.1315  0.1108
  338W        W  359   2.537   0.542   2.215 -0.0719 -0.2544 -0.1615
  339W        W  360   2.803   0.942   3.796 -0.3474  0.0630  0.0659
  340W        W  361   3.411   3.694   3.036 -0.0407 -0.2444 -0.0384
  341W        W  362   0.911   3.622   3.127 -0.0333 -0.0673 -0.0082
  342W        W  363   1.955   4.254   2.595 -0.2110  0.1697  0.0465
  343W        W  364   2.552   0.141   0.218 -0.1932 -0.1343  0.3036
  344W        W  365   0.042   3.202   1.643 -0.0340  0.1403  0.2620
  345W        W  366   2.179   1.566   0.493 -0.5783  0.1228 -0.3516
  346W        W  367   2.365   3.707   0.851 -0.1476 -0.1333 -0.0503
  347W        W  368   0.164   3.401   3.266 -0.0301  0.2172 -0.0540
  348W        W  369   1.416   3.522   1.176  0.0063  0.1115  0.3506
  349W        W  370   0.190   1.968   3.061  0.2089  0.0754  0.0625
  350W        W  371   3.547   0.643   3.221 -0.1006 -0.2023  0.0214
  351W        W  372   2.257   0.438   3.998  0.1679  0.0523  0.3409
  352W        W  373   3.836   2.578   0.576  0.0207 -0.2810 -0.0230
  353W        W  374   4.123   1.537   1.009 -0.1271  0.0706 -0.1474
  354W        W  375   2.852   2.834   3.982 -0.2108  0.2498  0.3211
  355W        W  376   4.227   2.775   3.983  0.3515  0.0695 -0.1956
  356W        W  377   3.502   2.616   2.005  0.0969  0.2004  0.0155
  357W        W  378   0.406   1.528   3.343 -0.1635 -0.1291  0.0476
  358W        W  379   2.894   3.985   0.288 -0.2096  0.1432  0.0455
  359W        W  380   2.667   2.065   3.714  0.2964  0.0476  0.1468
  360W        W  381   3.847   0.532   1.967  0.0926  0.1532 -0.0410
  361W        W  382   0.410   0.689   0.930 -0.3422 -0.1618  0.1520
  362W        W  383   0.196   2.621   1.770  0.1863  0.2941  0.0359
  363W        W  384   4.276   4.283   1.318  0.1086  0.1822  0.2432
  364W        W  385   3.048   2.427   3.572 -0.1742 -0.0013  0.0986
  365W        W  386   3.461   2.706   1.289  0.1591 -0.0664  0.2297
  366W        W  387   0.285   1.483   2.813 -0.0106  0.1071  0.0192
  367W        W  388   3.790   2.590   0.056 -0.0313 -0.2841  0.2334
  368W        W  389   3.859   2.067   0.567  0.0256  0.0329 -0.1906
  369W        W  390   2.006   2.194   3.907  0.0296 -0.0487 -0.1673
  370W        W  391   0.513   3.349   2.935 -0.0462  0.2280 -0.2511
  371W        W  392   1.002   4.042   0.098 -0.0700  0.1300 -0.0177
  372W        W  393   0.054   2.232   3.587  0.3105 -0.0374  0.2239
  373W        W  394   2.993   2.002   2.274  0.0393  0.2572  0.0156
  374W        W  395   0.515   0.783   3.864 -0.0519  0.1678  0.1403
  375W        W  396   0.305   0.160   0.864  0.0943 -0.1292 -0.1356
  376W        W  397   0.933   2.186   2.605 -0.4463  0.0745  0.0094
  377W        W  398   1.942   3.951   2.983 -0.1130 -0.0629 -0.1009
  378W        W  399   3.803   0.218   2.898  0.0854 -0.3244 -0.1859
  379W        W  400   2.932   2.030   0.156 -0.4162  0.1331  0.2019
  380W        W  401   1.155   0.287   3.191 -0.0615 -0.0751 -0.0837
  381W        W  402   1.079   0.981   2.565 -0.2127 -0.1075  0.2837
  382W        W  403   1.547   0.068   0.118  0.1464  0.1313 -0.0857
  383W        W  404   0.417   1.035   2.532 -0.1483 -0.4387  0.0704
  384W        W  405   3.663   3.487   0.915 -0.2166 -0.2861 -0.2946
  385W        W  406   3.382   2.443   2.451  0.0760 -0.2489 -0.0750
  386W        W  407   3.893   2.101   2.484  0.0746  0.1046 -0.2577
  387W        W  408   2.990   2.530   2.221 -0.2424  0.2353  0.1233
  388W        W  409   1.975   0.604   2.632 -0.2297 -0.0394 -0.0758
  389W        W  410   2.502   2.376   0.976  0.2366 -0.2856  0.0722
  390W        W  411   1.178   1.802   0.141  0.1215 -0.1194  0.1565
  391W        W  412   3.668   4.022   1.857 -0.0221  0.2640  0.1953
  392W        W  413   3.901   2.420   3.866 -0.0705 -0.1640 -0.4691
  393W        W  414   2.756   1.661   4.055  0.2773  0.0955 -0.0286
  394W        W  415   1.700   3.980   1.214  0.1309 -0.0070  0.2429
  395W        W  416   2.446   1.893   0.789  0.0780  0.0784  0.1475
  396W        W  417   1.640   1.368   3.252 -0.0594  0.1947  0.1965
  397W        W  418   2.336   3.836   2.246  0.1269 -0.4366 -0.0219
  398W        W  419   1.385   1.666   0.830 -0.0624 -0.0677  0.0750
  399W        W  420   1.421   3.466   3.880 -0.0946 -0.0516  0.3620
  400W        W  421   4.043   0.069   2.123  0.0627 -0.2638 -0.0533
  401W        W  422   4.112   0.050   0.773 -0.1139 -0.0582  0.0020
  402W        W  423   1.755   2.453   2.441  0.0630 -0.0422  0.0885
  403W        W  424   0.008   0.106   4.056  0.2908  0.2034  0.1499
  404W        W  425   4.261   2.862   3.106  0.2495  0.4114 -0.0383
  405W        W  426   0.662   3.816   2.767  0.0558 -0.1567  0.1452
  406W        W  427   3.023   2.512   1.127 -0.2023 -0.1139 -0.0405
  407W        W  428   2.036   0.820   1.188  0.4314  0.1269 -0.2424
  408W        W  429   3.867   3.980   3.624  0.0316 -0.2361 -0.0960
  409W        W  430   1.958   1.384   1.885 -0.2036  0.1775 -0.1415
  410W        W  431   3.128   2.628   1.622 -0.0934  0.0257 -0.0874
  411W        W  432   2.150   2.653   2.190 -0.1360  0.2938 -0.1430
  412W        W  433   0.757   2.586   2.356  0.0290 -0.0791  0.1935
  413W        W  434   3.370   0.057   1.560 -0.0517  0.0149 -0.0715
  414W        W  435   0.205   2.843   2.254 -0.1939 -0.1685 -0.3050
  415W        W  436   1.292   3.075   3.456  0.0606 -0.2477 -0.6049
  416W        W  437   2.250   0.611   0.270 -0.1996  0.0989  0.1054
  417W        W  438   1.649   1.739   0.401 -0.3054 -0.0607 -0.1427
  418W        W  439   3.407   1.046   2.983  0.0570  0.1614  0.0041
  419W        W  440   4.119   3.839   1.050  0.0420  0.0101 -0.1119
  420W        W  441   0.492   4.007   4.112 -0.0104 -0.4140 -0.1161
  421W        W  442   1.057   0.714   3.496  0.1989 -0.0331  0.1639
  422W        W  443   2.305   2.816   0.803 -0.2618 -0.1537 -0.1690
  423W        W  444   2.424   3.671   4.077  0.3952  0.0613  0.0725
  424W        W  445   3.478   0.900   1.782  0.0304  0.1751 -0.1404
  425W        W  446   2.336   0.417   1.753 -0.0159  0.3720 -0.2930
  426W        W  447   0.035   1.279   2.290 -0.1526 -0.1632  0.3870
  427W        W  448   0.929   3.854   3.901 -0.0493  0.2857  0.1427
  428W        W  449   4.120   0.626   3.606 -0.2062 -0.1343 -0.2497
  429W        W  450   1.655   2.162   3.486  0.0163 -0.2242 -0.1328
  430W        W  451   4.274   2.485   1.300  0.0006 -0.2549 -0.1329
  431W        W  452   3.080   3.432   1.776  0.0950  0.1475  0.0609
  432W        W  453   4.038   3.797   0.450  0.0502  0.2530  0.1733
  433W        W  454   3.793   1.065   3.357 -0.1336 -0.0294 -0.1728
  434W        W  455   1.613   2.117   2.125 -0.2627 -0.1571  0.0551
  435W        W  456   3.433   0.285   0.071 -0.0284 -0.3438  0.2716
  436W        W  457   1.740   0.417   0.467  0.0123 -0.0652 -0.2294
  437W        W  458   0.019   1.885   0.564 -0.1298 -0.1586 -0.0938
  438W        W  459   2.580   1.130   1.253  0.1796 -0.0241 -0.2226
  439W        W  460   1.068   2.771   0.414  0.2342  0.0765 -0.4468
  440W        W  461   2.009   4.029   3.771  0.2506  0.0444 -0.0770
  441W        W  462   1.884   3.449   2.985  0.0534  0.1067 -0.1262
  442W        W  463   0.794   4.089   0.776  0.1988  0.0231 -0.2169
  443W        W  464   1.886   2.898   1.797 -0.0392 -0.3595  0.0654
  444W        W  465   3.360   3.140   2.158 -0.0684 -0.0047  0.2860
  445W        W  466   0.033   2.014   1.141 -0.0667  0.0857  0.3781
  446W        W  467   0.338   2.816   2.701  0.0731 -0.1541  0.1359
  447W        W  468   1.541   0.135   0.933  0.1581  0.0604 -0.0342
  448W        W  469   0.933   2.143   0.439 -0.2001  0.1352  0.1759
  449W        W  470   3.110   0.425   0.476  0.2783  0.0556  0.0249
  450W        W  471   4.281   0.776   2.673  0.0666  0.0058 -0.3087
  451W        W  472   4.078   1.259   2.792 -0.0981 -0.0607  0.2365
  452W        W  473   3.069   3.040   1.111  0.0242  0.0380  0.3752
  453W        W  474   0.935   0.249   1.665  0.0059  0.2110  0.0604
  454W        W  475   2.473   0.080   0.728  0.2259 -0.1601 -0.1827
  455W        W  476   2.432   1.274   3.734  0.1631 -0.2639  0.2341
  456W        W  477   4.265   2.462   0.767  0.0600 -0.3165 -0.1040
  457W        W  478   1.833   1.705   3.671 -0.0363  0.1247  0.1504
  458W        W  479   3.565   3.513   1.724 -0.0785  0.2015  0.0935
  459W        W  480   3.781   0.180   1.135 -0.0701  0.3034 -0.1896
  460W        W  481   1.053   2.142   0.976  0.2239 -0.0046  0.0387
  461W        W  482   0.304   4.269   3.131  0.5848 -0.1402 -0.1074
  462W        W  483   2.906   1.448   3.001  0.2138 -0.0739  0.0747
  463W        W  484   0.773   2.457   0.030 -0.1126 -0.0016 -0.2588
  464W        W  485   2.382   0.290   2.629 -0.0355 -0.2602 -0.0491
  465W        W  486   3.883   0.910   0.067  0.1818  0.0623 -0.3874
  466W        W  487   3.909   2.903   1.752 -0.1639 -0.1197 -0.0264
  467W        W  488   3.674   2.066   3.100  0.0709 -0.1187  0.1002
  468W        W  489   3.441   3.945   2.555  0.1326  0.1330  0.0654
  469W        W  490   3.452   1.978   2.635 -0.3223 -0.1958  0.0967
  470W        W  491   3.836   0.833   2.889  0.0455  0.1002  0.0885
  471W        W  492   1.713   2.194   0.090  0.1611 -0.0309  0.0183
  472W        W  493   0.679   3.278   0.215 -0.3894 -0.0047 -0.0525
  473W        W  494   1.068   2.214   2.083  0.0144  0.0077 -0.1510
  474W        W  495   4.175   3.270   4.106  0.1515  0.0950  0.2608
  475W        W  496   0.726   0.395   3.378 -0.2167  0.0422  0.2008
  476W        W  497   2.939   1.427   3.677  0.3231 -0.3755  0.2241
  477W        W  498   1.531   3.865   4.265  0.1135 -0.1217 -0.0848
  478W        W  499   3.379   2.028   0.899  0.1163 -0.0769 -0.2167
  479W        W  500   2.783   0.425   3.681 -0.2409  0.3173 -0.3555
  480W        W  501   3.640   1.863   1.681  0.0074  0.3527  0.3413
  481W        W  502   1.324   1.353   0.326  0.0950 -0.0578  0.0388
  482W        W  503   0.097   1.888   2.511 -0.0012 -0.1422  0.0163
  483W        W  504   2.274   2.422   2.636 -0.1891  0.2687 -0.1691
  484W        W  505   2.603   4.254   2.388  0.0706  0.0187 -0.2385
  485W        W  506   1.544   3.884   3.677 -0.0706 -0.0829  0.0449
  486W        W  507   2.088   1.743   1.363 -0.1560  0.0777  0.2447
  487W        W  508   3.074   1.296   1.142 -0.3692 -0.0253  0.0960
  488W        W  509   1.635   0.497   3.037  0.1696 -0.3065  0.3668
  489W        W  510   2.265   2.026   2.987  0.0184 -0.2104 -0.0913
  490W        W  511   0.272   2.329   4.127  0.0493 -0.0343 -0.0843
  491W        W  512   3.791   4.039   3.120 -0.1647 -0.4520 -0.0640
  492W        W  513   2.897   0.308   0.898  0.1518  0.2732  0.0194
  493W        W  514   2.216   3.914   1.328  0.3203 -0.1573 -0.0455
  494W        W  515   2.157   1.560   3.304 -0.1489 -0.2142  0.0137
  495W        W  516   1.657   4.250   3.265 -0.4098 -0.0155  0.1664
  496W        W  517   0.256   0.332   3.682  0.1544  0.0933 -0.1929
  497W        W  518   3.859   2.587   2.283 -0.1628  0.4814 -0.1678
  498W        W  519   1.168   3.532   1.622  0.1945 -0.0169 -0.2617
  499W        W  520   2.008   4.013   4.254 -0.0719 -0.0244  0.3335
  500W        W  521   2.226   1.004   4.189 -0.1329 -0.1383  0.1860
  501W        W  522   2.937   0.142   2.818 -0.0029 -0.0163  0.3775
  502W        W  523   0.015   1.337   1.720 -0.3854  0.0885 -0.3015
  503W        W  524   1.840   0.211   3.943  0.0663  0.2930 -0.0940
  504W        W  525   0.377   2.607   1.016 -0.0559  0.0652  0.0709
  505W        W  526   1.553   2.713   0.199  0.0287  0.0801  0.3768
  506W        W  527   1.569   2.453   3.926 -0.0100  0.2497  0.0824
  507W        W  528   4.199   3.860   4.206  0.0967  0.0167  0.1568
  508W        W  529   2.734   3.206   3.336 -0.1979 -0.1048  0.0173
  509W        W  530   3.345   3.545   4.182 -0.1005  0.2009  0.2363
  510W        W  531   2.373   2.675   3.185  0.1108 -0.0779 -0.1166
  511W        W  532   2.003   4.281   1.636 -0.2081 -0.2825  0.0713
  512W        W  533   0.125   4.071   3.679 -0.0729  0.2609  0.0248
  513W        W  534   2.248   1.299   0.978  0.0428 -0.3492  0.0059
  514W        W  535   0.880   1.408   2.526  0.0370  0.0599  0.2362
  515W        W  536   3.913   2.030   3.537  0.0193  0.1053 -0.0147
  516W        W  537   0.588   0.892   3.400 -0.0537  0.0653  0.4773
  517W        W  538   1.583   3.472   2.538  0.4164  0.0553  0.0900
  518W        W  539   0.863   2.602   0.848 -0.0756  0.2395 -0.0496
  519W        W  540   2.906   3.595   3.076  0.2698 -0.3685 -0.0948
  520W        W  541   2.578   2.792   0.223 -0.0870 -0.1445  0.0413
  521W        W  542   3.483   3.363   2.557 -0.0341 -0.1334  0.1148
  522W        W  543   1.358   0.007   2.098 -0.0024  0.1686  0.2168
  523W        W  544   1.171   2.240   4.183 -0.0318 -0.0914 -0.0700
  524W        W  545   0.602   4.171   1.297 -0.0049 -0.2093  0.1804
  525W        W  546   0.937   0.306   3.849 -0.1207  0.0447  0.1093
  526W        W  547   1.699   1.621   2.287  0.2794 -0.2529  0.0870
  527W        W  548   0.527   0.573   2.514 -0.1918  0.1333  0.0320
  528W        W  549   3.890   2.320   1.590 -0.0124 -0.3788 -0.1195
  529W        W  550   0.683   1.773   2.931 -0.0563 -0.0185 -0.0386
  530W        W  551   1.670   1.661   1.623 -0.1713  0.4146  0.2531
  531W        W  552   3.372   1.698   2.109  0.0846  0.0072 -0.1589
  532W        W  553   2.808   1.891   2.866  0.4119 -0.2927  0.3598
  533W        W  554   3.921   0.099   1.670  0.3144 -0.2372 -0.0380
  534W        W  555   2.084   3.232   0.675  0.2590 -0.0565  0.2102
  535W        W  556   2.001   1.093   3.420 -0.3893 -0.3428  0.0976
  536W        W  557   2.816   1.418   1.598 -0.2744 -0.0188  0.4069
  537W        W  558   2.368   1.436   4.270  0.1211 -0.0920 -0.1772
  538W        W  559   1.335   1.213   3.727 -0.2280 -0.2538 -0.1359
  539W        W  560   2.073   3.457   0.128  0.2104  0.2194 -0.0561
  540W        W  561   3.959   0.434   2.508 -0.0464 -0.4889  0.1524
  541W        W  562   1.963   2.004   1.771  0.1872 -0.0331 -0.0073
  542W        W  563   0.170   1.777   2.080 -0.0429 -0.0559 -0.1365
  543W        W  564   3.383   3.894   3.831  0.2881 -0.2094  0.1677
  544W        W  565   2.378   0.124   1.259  0.1171  0.2959  0.2527
  545W        W  566   1.560   0.945   2.024  0.2508 -0.0231 -0.0148
  546W        W  567   2.281   1.761   3.851 -0.2738 -0.0116 -0.1402
  547W        W  568   1.066   3.859   1.171 -0.2145 -0.1713  0.3223
  548W        W  569   3.122   4.197   2.270 -0.0121 -0.0727 -0.4379
  549W        W  570   3.604   1.489   2.519 -0.1054 -0.0054  0.0199
  550W        W  571   2.962   0.802   1.027  0.1360  0.1195 -0.1741
  551W        W  572   1.626   2.569   1.453 -0.0626  0.1241  0.0737
  552W        W  573   4.145   2.218   0.173  0.2422  0.1944  0.2278
  553W        W  574   3.750   1.394   1.404 -0.1694  0.2118 -0.1658
  554W        W  575   3.684   4.041   0.818 -0.1706 -0.1193  0.3782
  555W        W  576   0.767   1.202   3.679 -0.2489  0.2374  0.1208
  556W        W  577   2.566   2.283   0.369 -0.0847  0.0567  0.0114
  557W        W  578   2.074   4.132   0.919 -0.2210  0.0842 -0.1490
  558W        W  579   3.692   2.143   2.032  0.2911 -0.3031 -0.1422
  559W        W  580   2.670   3.360   2.123 -0.1409  0.1256 -0.0390
  560W        W  581   1.622   0.703   0.927 -0.1748 -0.0801  0.3555
  561W        W  582   1.745   3.171   3.618  0.4234 -0.1658  0.2195
  562W        W  583   2.669   0.701   2.839  0.0565  0.3173  0.4728
  563W        W  584   3.167   3.547   3.535 -0.1588 -0.0117 -0.3843
  564W        W  585   1.251   0.401   0.623  0.3144 -0.0643 -0.1704
  565W        W  586   1.533   2.065   1.175  0.1245  0.1374  0.0632
  566W        W  587   0.443   2.304   0.446  0.0436  0.2315  0.1085
  567W        W  588   3.834   1.887   1.130 -0.4966  0.1044  0.3071
  568W        W  589   2.693   3.568   2.597 -0.4045  0.1485  0.0778
  569W        W  590   3.290   0.212   3.844  0.0147  0.0560 -0.0248
  570W        W  591   0.842   1.360   0.272 -0.0752 -0.0843  0.0314
  571W        W  592   1.421   2.619   3.474 -0.3553  0.1260 -0.1186
  572W        W  593   0.628   1.813   0.282  0.2593  0.0908  0.1580
  573W        W  594   1.346   3.654   2.080  0.0986  0.0906  0.0850
  574W        W  595   2.446   1.321   1.955  0.0578  0.1774  0.2591
  575W        W  596   3.523   2.887   0.338 -0.0168  0.2991 -0.1688
  576W        W  597   0.574   2.826   1.478  0.0421 -0.0738  0.0026
  577W        W  598   3.716   1.565   3.388 -0.2044 -0.0355 -0.0750
  578W        W  599   1.822   1.865   3.110 -0.0447 -0.0706  0.3245
  579W        W  600   3.897   3.488   3.300 -0.1145 -0.1657 -0.0373
  580W        W  601   2.725   3.841   1.985  0.0382 -0.0751 -0.1882
  581W        W  602   3.383   2.216   1.344  0.2036  0.1871  0.0010
  582W        W  603   0.954   2.983   2.654 -0.0327  0.1333  0.0019
  583W        W  604   1.177   0.707   2.981  0.3523 -0.1595 -0.2692
  584W        W  605   0.795   0.769   1.316 -0.0632 -0.0830 -0.1729
  585W        W  606   0.922   0.220   0.080 -0.1463  0.1419 -0.0287
  586W        W  607   1.287   4.246   3.978  0.0244  0.0580 -0.3599
  587W        W  608   3.787   4.226   0.299 -0.0539 -0.1109  0.0976
  588W        W  609   3.693   4.031   1.319 -0.0669  0.0832  0.3811
  589W        W  610   3.438   0.192   2.505  0.0184 -0.2254 -0.0286
  590W        W  611   2.388   0.750   3.623 -0.1360  0.0290 -0.1949
  591W        W  612   1.179   3.219   0.363 -0.1304  0.1629  0.3248
  592W        W  613   0.370   2.390   3.252 -0.0586 -0.1092 -0.3839
  593W        W  614   2.039   0.192   0.155  0.1377 -0.2900 -0.0031
  594W        W  615   1.527   3.572   3.316 -0.2167  0.1334 -0.4247
  595W        W  616   2.840   3.625   0.583 -0.1985  0.1861 -0.0770
  596W        W  617   3.974   0.911   2.257  0.3126 -0.1502 -0.0652
  597W        W  618   0.690   2.358   1.317 -0.2503  0.0187  0.1364
  598W        W  619   2.259   1.009   2.805 -0.2133 -0.0164  0.0883
  599W        W  620   3.008   2.645   0.269  0.1549  0.2531  0.3071
  600W        W  621   1.301   1.741   1.931  0.0021  0.1197 -0.0220
  601W        W  622   2.586   1.085   3.250 -0.0715 -0.1010 -0.0859
  602W        W  623   1.365   0.518   0.057  0.2276 -0.1522  0.2706
  603W        W  624   2.731   1.251   0.778 -0.0098  0.2397  0.2373
  604W        W  625   0.576   0.045   2.663  0.0129  0.4342 -0.1651
  605W        W  626   3.385   1.726   0.238  0.2806  0.1597  0.0966
  606W        W  627   0.737   3.749   1.542  0.2742  0.0524 -0.2509
  607W        W  628   3.080   0.964   1.529 -0.2561  0.1636 -0.0652
  608W        W  629   1.313   2.546   0.932  0.0492 -0.2963  0.0589
  609W        W  630   2.194   1.103   1.556 -0.0636 -0.1192 -0.1137
  610W        W  631   2.936   3.985   2.671  0.2100 -0.1265 -0.2001
  611W        W  632   2.683   2.355   4.141  0.1621  0.1704  0.1796
  612W        W  633   0.443   2.934   3.206  0.0935  0.0154  0.2990
  613W        W  634   2.163   2.122   3.466 -0.1520  0.0216 -0.0707
  614W        W  635   0.687   2.456   1.786 -0.0803 -0.1701  0.1508
  615W        W  636   0.513   1.411   2.193  0.3506  0.3217  0.3928
  616W        W  637   2.390   3.413   1.204  0.0525 -0.0066  0.0149
  617W        W  638   3.813   2.492   2.803  0.0089  0.1517  0.2737
  618W        W  639   3.363   1.168   2.180 -0.1945  0.0565  0.1266
  619W        W  640   3.124   2.998   3.605  0.0124  0.0785 -0.1867
  620W        W  641   2.767   4.090   3.133 -0.5178  0.0233  0.1880
  621W        W  642   2.399   2.506   3.790 -0.0127 -0.2241  0.2088
  622W        W  643   0.178   1.021   3.056  0.0172  0.0697  0.2225
  623W        W  644   4.162   0.467   1.225 -0.0408 -0.1348  0.0345
  624W        W  645   3.228   1.722   1.330  0.1472 -0.0180 -0.0834
  625W        W  646   2.555   2.318   2.207  0.1440 -0.3514 -0.0749
  626W        W  647   2.615   3.693   3.609  0.3995 -0.1744 -0.0293
  627W        W  648   1.237   1.320   2.200 -0.1549 -0.0902  0.2704
  628W        W  649   3.384   2.717   3.090 -0.0535  0.0504 -0.1252
  629W        W  650   2.298   3.092   1.929  0.0506 -0.2722 -0.0339
  630W        W  651   4.110   2.007   4.024 -0.1164 -0.3476 -0.1421
  631W        W  652   1.458   0.082   2.863 -0.2123  0.1716  0.0280
  632W        W  653   3.933   1.731   2.085  0.0342  0.4551 -0.1475
  633W        W  654   1.406   0.336   1.714  0.2567 -0.0885 -0.1879
  634W        W  655   3.711   4.267   4.038 -0.1417 -0.1535  0.1454
  635W        W  656   3.148   3.147   3.038  0.2160  0.2371  0.0500
  636W        W  657   0.832   3.443   2.018  0.2654  0.1167 -0.2911
  637W        W  658   1.809   1.258   1.229 -0.2551  0.0123 -0.2088
  638W        W  659   0.903   3.070   3.144  0.0948  0.2135 -0.2540
  639W        W  660   1.751   4.145   0.475 -0.0041  0.0960  0.1151
  640W        W  661   3.484   2.251   3.598 -0.3650 -0.0171 -0.0808
  641W        W  662   3.296   1.390   1.667  0.1858  0.0971  0.1722
  642W        W  663   1.846   0.463   1.869 -0.0534 -0.1753  0.4726
  643W        W  664   0.818   2.008   1.686 -0.1748 -0.0428  0.1905
  644W        W  665   0.292   2.086   1.614 -0.1443 -0.2116  0.0028
  645W        W  666   1.211   0.528   2.158 -0.2555  0.2479  0.0885
  646W        W  667   0.752   0.183   2.134 -0.1791  0.1271 -0.3664
  647W        W  668   1.718   0.913   1.555 -0.2006 -0.0476  0.1018
  648W        W  669   1.050   3.589   2.485 -0.2297 -0.2685 -0.2667
  649W        W  670   0.320   3.535   4.102 -0.0274  0.1590 -0.1238
  650W        W  671   0.477   2.120   0.909 -0.0916  0.0575  0.1937
  651W        W  672   0.820   0.946   2.126  0.0827  0.0487 -0.0639
  652ION     NA  673   2.132   2.250   0.879 -0.0343 -0.3000 -0.1572
  653ION     NA  674   0.813   4.235   4.033  0.1712 -0.2294 -0.0117
  654ION     NA  675   3.372   3.244   3.825 -0.0748  0.0114 -0.6259
  655ION     NA  676   1.094   3.141   3.830  0.1149 -0.2347 -0.1594
  656ION     NA  677   2.162   3.937   1.858 -0.4609  0.1393  0.0946
  657ION     NA  678   2.922   1.114   0.420 -0.1609  0.0990  0.1535
  658ION     NA  679   4.201   4.159   3.003 -0.0044 -0.0486 -0.2154
  659ION     CL  680   3.125   2.574   2.768 -0.3276 -0.0309  0.0096
  660ION     CL  681   0.601   3.313   3.361  0.3180  0.0019 -0.0382
  661ION     CL  682   3.622   1.181   0.483 -0.0623 -0.2337 -0.1662
  662ION     CL  683   3.559   3.753   3.474  0.1906  0.3440  0.2295
  663ION     CL  684   1.258   3.212   1.914  0.0602 -0.7229 -0.0310
  664ION     CL  685   0.725   3.668   4.283 -0.4216  0.1340 -0.2496
  665ION     CL  686   2.781   2.180   1.864 -0.1085  0.1856  0.4099
   4.28397   4.28397   4.28397
