Insanely solvated protein.
  686
  149ASN      O    1   2.779   1.617   1.019
  149ASN     CB    2   2.529   1.657   1.168
    1BG      C1    3   2.490   1.752   1.522
    1BG      C3    4   2.346   2.014   1.611
    1BG      C2    5   2.396   2.108   1.288
    1BG      C4    6   2.380   1.697   1.714
    2AF      C1    7   2.241   1.384   1.720
    2AF      C2    8   2.009   1.464   1.877
    2AF      C4    9   2.112   1.190   1.599
    3BG      C1   10   2.142   1.960   1.873
    3BG      C2   11   2.391   1.722   2.129
    3BG      C3   12   2.117   1.912   2.175
    3BG      C4   13   2.073   2.200   1.876
    4BM      C1   14   2.045   2.282   2.268
    4BM      C2   15   1.784   2.330   2.264
    4BM      C4   16   2.055   2.388   2.490
    5AM      C1   17   2.266   2.119   2.617
    5AM      C2   18   2.479   2.021   2.492
    5AM      C4   19   2.181   1.871   2.651
    6BG      C1   20   2.699   2.277   2.694
    6BG      C2   21   2.496   2.043   3.013
    6BG      C3   22   2.735   2.276   3.009
    6BG      C4   23   2.929   2.344   2.698
    7AM      C1   24   1.652   2.558   2.207
    7AM      C2   25   1.456   2.605   2.385
    7AM      C4   26   1.503   2.592   2.014
    8BG      C1   27   1.551   2.855   2.587
    8BG      C2   28   1.651   3.092   2.199
    8BG      C3   29   1.568   3.163   2.503
    8BG      C4   30   1.384   2.946   2.755
    9W        W   31   3.580   4.084   1.215
   10W        W   32   2.176   2.638   0.265
   11W        W   33   4.059   3.608   2.664
   12W        W   34   0.742   3.133   4.058
   13W        W   35   2.194   4.057   0.761
   14W        W   36   0.244   0.757   0.283
   15W        W   37   0.240   1.708   1.232
   16W        W   38   4.059   0.258   4.086
   17W        W   39   2.152   3.146   0.283
   18W        W   40   4.101   4.060   0.748
   19W        W   41   3.121   4.097   2.626
   20W        W   42   0.762   3.607   2.666
   21W        W   43   1.714   1.237   2.671
   22W        W   44   2.667   3.616   3.621
   23W        W   45   0.743   0.728   1.708
   24W        W   46   4.063   3.608   3.590
   25W        W   47   1.210   2.151   4.064
   26W        W   48   3.143   2.191   3.595
   27W        W   49   1.229   1.200   3.108
   28W        W   50   2.153   1.210   0.254
   29W        W   51   0.249   4.096   3.146
   30W        W   52   1.706   3.596   3.587
   31W        W   53   1.230   1.197   1.213
   32W        W   54   0.763   2.191   4.072
   33W        W   55   2.167   3.123   3.613
   34W        W   56   3.147   1.201   2.167
   35W        W   57   4.072   3.147   1.196
   36W        W   58   2.172   4.059   3.108
   37W        W   59   3.615   3.604   0.271
   38W        W   60   1.208   2.188   1.198
   39W        W   61   0.269   1.238   0.729
   40W        W   62   2.155   1.672   3.611
   41W        W   63   0.242   1.711   2.635
   42W        W   64   0.280   0.285   0.268
   43W        W   65   1.708   0.750   3.585
   44W        W   66   0.269   1.217   2.163
   45W        W   67   3.613   2.637   0.747
   46W        W   68   3.111   1.216   3.611
   47W        W   69   2.667   3.130   2.665
   48W        W   70   1.219   4.059   0.718
   49W        W   71   2.668   3.148   1.711
   50W        W   72   1.717   1.202   0.761
   51W        W   73   4.101   4.098   4.095
   52W        W   74   1.707   2.179   3.588
   53W        W   75   4.065   0.760   2.152
   54W        W   76   2.179   4.059   2.161
   55W        W   77   2.172   3.118   0.751
   56W        W   78   1.712   0.266   2.150
   57W        W   79   3.618   1.207   3.616
   58W        W   80   3.124   4.077   1.704
   59W        W   81   2.628   3.127   3.590
   60W        W   82   4.076   3.111   1.672
   61W        W   83   2.158   0.731   2.191
   62W        W   84   0.253   0.255   1.703
   63W        W   85   1.207   4.068   1.704
   64W        W   86   1.215   1.672   1.224
   65W        W   87   4.096   4.101   1.692
   66W        W   88   0.749   3.116   0.721
   67W        W   89   2.652   2.658   1.682
   68W        W   90   0.251   3.118   4.085
   69W        W   91   0.255   2.169   4.057
   70W        W   92   2.178   0.251   3.624
   71W        W   93   4.072   2.157   4.091
   72W        W   94   0.750   2.645   2.660
   73W        W   95   0.740   1.715   2.162
   74W        W   96   1.240   0.717   0.282
   75W        W   97   1.713   2.662   0.738
   76W        W   98   0.725   3.111   1.715
   77W        W   99   0.759   4.057   3.620
   78W        W  100   1.707   1.678   3.591
   79W        W  101   1.693   0.736   1.703
   80W        W  102   3.119   2.643   2.184
   81W        W  103   3.623   2.188   0.270
   82W        W  104   0.717   0.264   1.198
   83W        W  105   3.125   3.118   1.219
   84W        W  106   3.594   2.193   3.615
   85W        W  107   3.125   0.746   3.593
   86W        W  108   2.665   4.092   4.068
   87W        W  109   3.626   1.692   0.257
   88W        W  110   2.174   0.734   2.654
   89W        W  111   0.728   2.167   1.221
   90W        W  112   1.200   4.072   0.249
   91W        W  113   2.629   3.602   1.718
   92W        W  114   1.704   4.081   1.679
   93W        W  115   2.627   1.672   4.069
   94W        W  116   1.674   1.213   3.580
   95W        W  117   0.246   3.582   3.623
   96W        W  118   3.123   1.690   4.061
   97W        W  119   1.689   3.118   4.095
   98W        W  120   0.721   3.616   1.232
   99W        W  121   3.615   3.110   1.205
  100W        W  122   4.068   3.126   0.746
  101W        W  123   1.226   3.595   0.733
  102W        W  124   3.625   1.712   0.755
  103W        W  125   4.059   3.123   3.127
  104W        W  126   2.667   3.611   2.185
  105W        W  127   1.671   0.255   3.131
  106W        W  128   3.626   4.081   2.663
  107W        W  129   4.068   3.611   1.232
  108W        W  130   0.262   4.090   2.193
  109W        W  131   3.608   1.705   1.683
  110W        W  132   4.084   3.619   0.269
  111W        W  133   2.665   3.597   4.071
  112W        W  134   0.264   4.082   0.274
  113W        W  135   2.183   4.085   1.204
  114W        W  136   0.265   1.714   4.101
  115W        W  137   2.640   0.749   3.586
  116W        W  138   2.629   0.260   3.106
  117W        W  139   1.229   0.747   3.614
  118W        W  140   2.667   2.661   4.085
  119W        W  141   4.088   2.163   2.148
  120W        W  142   0.727   4.058   2.670
  121W        W  143   1.706   2.187   4.084
  122W        W  144   3.149   2.668   1.222
  123W        W  145   2.189   0.280   2.189
  124W        W  146   3.120   3.626   4.093
  125W        W  147   3.596   0.730   0.742
  126W        W  148   2.664   3.585   3.125
  127W        W  149   1.702   3.135   0.266
  128W        W  150   4.071   2.671   1.678
  129W        W  151   1.226   2.173   0.247
  130W        W  152   0.257   1.202   4.092
  131W        W  153   3.618   2.671   2.654
  132W        W  154   2.178   1.693   4.068
  133W        W  155   0.245   2.156   3.583
  134W        W  156   2.671   0.738   1.212
  135W        W  157   0.259   3.618   3.133
  136W        W  158   3.147   1.210   1.709
  137W        W  159   0.253   3.625   2.650
  138W        W  160   3.584   2.179   4.060
  139W        W  161   1.238   3.119   1.694
  140W        W  162   3.624   0.246   2.181
  141W        W  163   2.156   3.144   3.117
  142W        W  164   0.275   0.266   1.235
  143W        W  165   0.758   0.757   2.665
  144W        W  166   0.728   0.725   3.128
  145W        W  167   0.267   3.149   3.621
  146W        W  168   2.628   4.058   3.607
  147W        W  169   2.161   3.115   1.709
  148W        W  170   1.703   0.732   4.070
  149W        W  171   4.077   2.626   4.079
  150W        W  172   4.100   0.761   0.751
  151W        W  173   0.737   1.689   3.102
  152W        W  174   0.754   2.667   3.113
  153W        W  175   4.096   1.203   1.699
  154W        W  176   1.206   2.194   0.738
  155W        W  177   4.090   0.275   3.121
  156W        W  178   4.068   2.161   1.234
  157W        W  179   2.666   1.239   3.596
  158W        W  180   1.713   0.275   0.263
  159W        W  181   0.257   1.680   0.274
  160W        W  182   3.117   3.103   3.133
  161W        W  183   3.113   4.060   0.756
  162W        W  184   1.703   4.095   2.148
  163W        W  185   3.609   2.170   2.194
  164W        W  186   2.192   3.624   3.617
  165W        W  187   3.616   4.067   2.176
  166W        W  188   1.674   1.712   4.078
  167W        W  189   3.586   3.109   1.679
  168W        W  190   0.744   0.253   2.161
  169W        W  191   0.747   1.225   3.118
  170W        W  192   0.743   0.280   0.737
  171W        W  193   3.612   3.126   2.648
  172W        W  194   2.164   4.082   4.074
  173W        W  195   4.103   2.652   0.757
  174W        W  196   3.134   3.115   4.084
  175W        W  197   3.590   3.614   2.156
  176W        W  198   0.724   0.257   0.269
  177W        W  199   2.163   3.136   4.059
  178W        W  200   3.149   4.075   2.171
  179W        W  201   0.740   1.711   1.683
  180W        W  202   0.272   0.249   3.585
  181W        W  203   0.258   2.649   1.677
  182W        W  204   0.249   2.667   0.249
  183W        W  205   1.684   4.074   3.596
  184W        W  206   1.237   1.671   0.261
  185W        W  207   3.593   3.102   3.104
  186W        W  208   3.624   3.581   3.613
  187W        W  209   3.105   1.696   3.128
  188W        W  210   1.226   0.717   1.677
  189W        W  211   2.645   3.117   0.732
  190W        W  212   4.087   1.705   1.214
  191W        W  213   3.601   0.717   3.619
  192W        W  214   1.679   3.602   4.058
  193W        W  215   1.239   1.194   3.617
  194W        W  216   3.622   3.616   1.692
  195W        W  217   0.757   4.058   2.175
  196W        W  218   0.248   2.161   3.139
  197W        W  219   1.676   1.714   1.211
  198W        W  220   0.283   1.697   3.123
  199W        W  221   2.172   3.610   3.123
  200W        W  222   3.590   0.261   3.131
  201W        W  223   1.218   3.147   0.250
  202W        W  224   1.200   1.676   4.074
  203W        W  225   3.626   3.595   4.099
  204W        W  226   4.086   2.189   1.677
  205W        W  227   0.251   2.160   1.199
  206W        W  228   0.738   2.154   0.750
  207W        W  229   3.128   0.257   1.709
  208W        W  230   1.698   0.254   4.069
  209W        W  231   1.215   1.689   3.104
  210W        W  232   0.732   2.669   1.227
  211W        W  233   0.735   1.694   4.085
  212W        W  234   0.722   1.200   2.155
  213W        W  235   1.194   1.197   4.099
  214W        W  236   3.144   1.214   2.660
  215W        W  237   0.261   2.183   2.656
  216W        W  238   0.259   0.262   3.139
  217W        W  239   1.232   1.236   0.727
  218W        W  240   3.606   1.678   2.656
  219W        W  241   2.653   0.240   2.179
  220W        W  242   1.678   4.090   0.756
  221W        W  243   4.069   1.692   0.750
  222W        W  244   2.158   0.750   3.594
  223W        W  245   3.589   1.200   4.073
  224W        W  246   0.241   0.733   1.203
  225W        W  247   2.179   2.194   0.245
  226W        W  248   2.665   0.763   0.276
  227W        W  249   0.717   2.671   0.254
  228W        W  250   1.234   2.169   3.110
  229W        W  251   2.632   0.272   1.699
  230W        W  252   0.721   2.162   3.126
  231W        W  253   0.249   3.142   2.171
  232W        W  254   2.171   3.589   0.254
  233W        W  255   2.173   2.657   0.751
  234W        W  256   0.286   2.638   2.154
  235W        W  257   4.098   0.258   2.666
  236W        W  258   1.674   4.095   2.662
  237W        W  259   0.285   3.589   1.714
  238W        W  260   2.650   0.757   4.076
  239W        W  261   4.092   0.716   4.076
  240W        W  262   2.162   2.663   3.610
  241W        W  263   4.071   3.133   4.087
  242W        W  264   4.097   0.733   0.243
  243W        W  265   3.608   2.182   2.626
  244W        W  266   3.624   1.220   0.736
  245W        W  267   0.742   4.066   1.689
  246W        W  268   2.657   3.126   2.177
  247W        W  269   4.083   1.201   1.197
  248W        W  270   3.581   2.663   2.190
  249W        W  271   1.213   4.084   3.613
  250W        W  272   2.669   4.074   2.672
  251W        W  273   0.745   4.090   0.719
  252W        W  274   0.262   1.202   3.608
  253W        W  275   3.147   3.594   0.741
  254W        W  276   1.220   3.587   2.159
  255W        W  277   1.718   2.170   0.286
  256W        W  278   4.062   0.752   3.590
  257W        W  279   2.671   3.130   1.195
  258W        W  280   1.694   1.224   0.246
  259W        W  281   3.602   1.211   0.249
  260W        W  282   4.102   2.634   3.624
  261W        W  283   1.204   0.731   2.657
  262W        W  284   2.654   1.229   2.631
  263W        W  285   3.623   0.753   1.698
  264W        W  286   1.193   3.587   1.709
  265W        W  287   0.271   3.605   0.279
  266W        W  288   0.250   1.683   1.706
  267W        W  289   3.125   4.070   1.206
  268W        W  290   0.754   2.160   3.602
  269W        W  291   2.657   1.706   3.596
  270W        W  292   0.727   1.220   0.746
  271W        W  293   0.266   4.084   1.685
  272W        W  294   1.239   0.725   1.204
  273W        W  295   3.117   4.095   3.129
  274W        W  296   2.180   0.242   0.721
  275W        W  297   1.677   3.600   3.134
  276W        W  298   0.270   0.728   1.679
  277W        W  299   3.132   2.661   1.672
  278W        W  300   2.654   2.162   4.086
  279W        W  301   4.088   2.176   3.117
  280W        W  302   2.650   1.221   3.129
  281W        W  303   0.282   0.724   4.066
  282W        W  304   2.151   1.239   3.125
  283W        W  305   4.094   3.609   0.739
  284W        W  306   4.069   4.093   2.174
  285W        W  307   2.170   3.591   2.190
  286W        W  308   0.270   1.230   3.116
  287W        W  309   1.204   3.118   0.744
  288W        W  310   4.069   0.251   3.580
  289W        W  311   3.145   3.149   2.177
  290W        W  312   3.605   1.715   2.153
  291W        W  313   0.757   3.600   0.246
  292W        W  314   4.085   2.646   2.637
  293W        W  315   0.262   0.242   2.639
  294W        W  316   2.188   3.126   1.213
  295W        W  317   1.202   0.731   2.156
  296W        W  318   3.138   0.280   0.262
  297W        W  319   3.130   3.148   0.737
  298W        W  320   0.733   3.610   4.084
  299W        W  321   0.245   2.628   3.147
  300W        W  322   1.695   2.174   3.147
  301W        W  323   3.612   2.669   1.208
  302W        W  324   2.170   1.232   3.605
  303W        W  325   4.063   4.095   3.142
  304W        W  326   2.654   0.264   1.224
  305W        W  327   0.738   3.132   0.283
  306W        W  328   1.699   0.242   0.727
  307W        W  329   0.243   1.237   2.670
  308W        W  330   1.687   3.120   0.729
  309W        W  331   0.740   2.159   2.168
  310W        W  332   2.645   0.758   0.735
  311W        W  333   3.125   2.664   0.719
  312W        W  334   1.673   3.615   1.715
  313W        W  335   2.181   3.597   0.762
  314W        W  336   4.075   1.195   0.270
  315W        W  337   0.263   3.107   0.254
  316W        W  338   0.759   4.102   0.263
  317W        W  339   3.122   1.709   1.693
  318W        W  340   0.282   1.700   2.180
  319W        W  341   2.641   3.588   0.266
  320W        W  342   3.139   4.087   0.248
  321W        W  343   0.763   4.069   3.126
  322W        W  344   2.189   0.256   3.144
  323W        W  345   4.086   1.217   3.580
  324W        W  346   4.078   1.683   0.258
  325W        W  347   3.119   2.156   4.069
  326W        W  348   3.133   0.748   0.275
  327W        W  349   1.197   1.676   3.622
  328W        W  350   1.231   0.241   3.581
  329W        W  351   0.286   4.064   1.237
  330W        W  352   4.103   2.635   2.192
  331W        W  353   0.733   0.750   1.209
  332W        W  354   1.694   2.667   4.084
  333W        W  355   4.059   0.286   0.282
  334W        W  356   2.628   1.220   4.101
  335W        W  357   0.738   0.268   3.117
  336W        W  358   0.283   2.630   1.212
  337W        W  359   2.661   0.743   2.646
  338W        W  360   1.703   1.206   1.198
  339W        W  361   3.590   1.709   1.204
  340W        W  362   0.720   3.604   3.614
  341W        W  363   4.084   4.100   3.595
  342W        W  364   4.100   1.704   2.181
  343W        W  365   3.136   3.618   2.652
  344W        W  366   1.200   2.192   3.584
  345W        W  367   3.601   4.098   1.691
  346W        W  368   1.226   3.615   0.259
  347W        W  369   0.244   0.722   3.115
  348W        W  370   3.619   4.060   4.095
  349W        W  371   3.605   4.088   3.591
  350W        W  372   3.107   1.238   0.270
  351W        W  373   3.604   3.608   3.116
  352W        W  374   4.074   1.692   2.658
  353W        W  375   3.594   0.744   3.130
  354W        W  376   1.218   2.627   0.265
  355W        W  377   0.753   3.125   2.653
  356W        W  378   0.734   1.709   0.275
  357W        W  379   4.062   1.696   1.709
  358W        W  380   3.131   0.261   0.720
  359W        W  381   3.125   3.113   0.252
  360W        W  382   3.116   3.146   3.611
  361W        W  383   0.239   0.719   2.664
  362W        W  384   2.158   4.090   1.688
  363W        W  385   2.670   2.195   3.587
  364W        W  386   3.148   0.277   4.098
  365W        W  387   4.068   3.581   4.084
  366W        W  388   0.284   1.712   0.726
  367W        W  389   0.761   1.215   3.616
  368W        W  390   2.669   2.637   0.244
  369W        W  391   0.722   2.655   1.699
  370W        W  392   1.685   1.193   3.115
  371W        W  393   4.066   0.280   2.191
  372W        W  394   0.751   4.065   4.086
  373W        W  395   4.078   1.681   3.587
  374W        W  396   2.641   0.243   3.609
  375W        W  397   2.626   4.093   3.119
  376W        W  398   3.614   0.284   1.235
  377W        W  399   4.079   3.599   3.123
  378W        W  400   0.267   1.221   1.701
  379W        W  401   0.262   0.276   0.749
  380W        W  402   0.756   1.216   1.211
  381W        W  403   2.190   1.194   0.759
  382W        W  404   0.240   2.658   2.632
  383W        W  405   0.253   4.081   2.632
  384W        W  406   4.074   1.201   0.760
  385W        W  407   1.215   1.675   1.706
  386W        W  408   1.698   3.130   3.609
  387W        W  409   3.598   3.139   2.183
  388W        W  410   4.097   4.092   1.204
  389W        W  411   1.714   4.081   4.080
  390W        W  412   3.611   1.223   1.706
  391W        W  413   3.142   2.170   2.151
  392W        W  414   3.600   1.222   2.174
  393W        W  415   3.126   2.628   4.088
  394W        W  416   2.633   1.203   0.246
  395W        W  417   0.762   0.737   2.184
  396W        W  418   0.247   3.622   0.717
  397W        W  419   1.211   0.280   1.213
  398W        W  420   1.673   0.272   3.589
  399W        W  421   2.150   1.678   0.239
  400W        W  422   3.580   3.620   2.633
  401W        W  423   2.660   3.126   4.090
  402W        W  424   1.694   0.755   0.255
  403W        W  425   3.119   3.615   3.618
  404W        W  426   1.701   0.733   2.164
  405W        W  427   3.620   2.656   3.140
  406W        W  428   3.140   2.155   1.716
  407W        W  429   2.638   3.587   0.735
  408W        W  430   2.186   3.626   2.666
  409W        W  431   1.230   2.184   1.695
  410W        W  432   0.737   3.580   2.185
  411W        W  433   1.219   0.253   4.074
  412W        W  434   3.595   0.262   2.643
  413W        W  435   1.717   2.170   0.761
  414W        W  436   2.181   2.643   3.144
  415W        W  437   1.689   3.605   0.280
  416W        W  438   3.114   0.247   2.177
  417W        W  439   2.670   4.078   1.709
  418W        W  440   2.170   2.643   4.083
  419W        W  441   3.622   4.060   0.734
  420W        W  442   1.232   1.718   2.178
  421W        W  443   1.215   1.709   0.723
  422W        W  444   1.691   0.251   1.692
  423W        W  445   3.122   0.758   2.173
  424W        W  446   3.599   0.254   0.755
  425W        W  447   0.761   1.206   4.101
  426W        W  448   1.211   3.585   3.145
  427W        W  449   0.747   0.756   0.753
  428W        W  450   3.120   0.746   3.113
  429W        W  451   1.195   3.127   3.608
  430W        W  452   0.281   4.063   0.716
  431W        W  453   3.117   3.589   1.216
  432W        W  454   3.606   1.678   4.086
  433W        W  455   1.693   2.633   1.206
  434W        W  456   1.197   0.740   4.063
  435W        W  457   1.219   2.633   1.216
  436W        W  458   0.731   0.245   2.668
  437W        W  459   3.613   0.758   2.634
  438W        W  460   1.193   0.271   0.257
  439W        W  461   0.741   1.222   2.661
  440W        W  462   2.642   3.614   1.228
  441W        W  463   2.161   0.243   1.693
  442W        W  464   0.262   3.127   1.679
  443W        W  465   0.254   0.275   4.062
  444W        W  466   3.622   0.763   2.164
  445W        W  467   2.667   4.089   0.276
  446W        W  468   3.593   2.192   3.123
  447W        W  469   2.160   3.603   1.703
  448W        W  470   0.276   0.735   2.151
  449W        W  471   1.677   3.121   1.231
  450W        W  472   4.080   1.708   3.123
  451W        W  473   0.279   3.144   3.132
  452W        W  474   1.226   2.671   4.076
  453W        W  475   1.683   1.699   0.252
  454W        W  476   1.691   0.273   1.203
  455W        W  477   3.117   3.590   3.137
  456W        W  478   4.062   1.224   2.156
  457W        W  479   1.225   4.086   2.163
  458W        W  480   1.201   0.285   1.703
  459W        W  481   3.138   1.203   0.722
  460W        W  482   0.757   1.210   0.286
  461W        W  483   0.275   3.620   1.201
  462W        W  484   2.164   2.178   4.066
  463W        W  485   2.152   0.281   0.239
  464W        W  486   2.662   0.284   2.629
  465W        W  487   3.625   0.258   1.710
  466W        W  488   3.121   0.725   4.081
  467W        W  489   3.593   2.186   1.691
  468W        W  490   0.267   1.203   1.227
  469W        W  491   0.286   1.229   0.240
  470W        W  492   3.624   3.144   3.608
  471W        W  493   4.063   0.753   1.239
  472W        W  494   0.747   2.173   2.653
  473W        W  495   1.237   4.087   2.626
  474W        W  496   2.636   3.119   0.279
  475W        W  497   1.674   0.761   1.220
  476W        W  498   2.647   2.627   0.727
  477W        W  499   3.149   4.062   3.601
  478W        W  500   0.719   0.286   4.093
  479W        W  501   2.668   0.760   3.114
  480W        W  502   2.159   0.264   2.656
  481W        W  503   0.276   3.104   0.749
  482W        W  504   2.167   1.196   4.073
  483W        W  505   2.167   3.146   2.647
  484W        W  506   1.674   0.743   2.626
  485W        W  507   1.234   1.716   2.641
  486W        W  508   0.762   1.701   0.749
  487W        W  509   0.254   2.176   2.171
  488W        W  510   4.087   0.719   3.131
  489W        W  511   2.649   0.726   2.148
  490W        W  512   1.676   2.177   1.205
  491W        W  513   2.628   2.629   2.175
  492W        W  514   0.739   0.270   1.715
  493W        W  515   3.127   0.728   0.757
  494W        W  516   1.709   0.758   3.120
  495W        W  517   3.602   1.672   3.586
  496W        W  518   2.154   4.102   2.652
  497W        W  519   1.226   4.096   4.096
  498W        W  520   1.222   4.069   1.215
  499W        W  521   0.717   1.672   3.599
  500W        W  522   2.195   3.600   4.064
  501W        W  523   0.262   0.724   0.730
  502W        W  524   0.734   2.668   2.179
  503W        W  525   1.194   1.238   0.273
  504W        W  526   3.594   0.754   1.224
  505W        W  527   2.169   1.229   2.649
  506W        W  528   4.095   2.659   1.231
  507W        W  529   2.659   0.242   0.763
  508W        W  530   3.117   0.760   1.221
  509W        W  531   0.719   3.609   0.721
  510W        W  532   0.755   1.681   2.629
  511W        W  533   4.097   3.134   0.242
  512W        W  534   4.073   3.609   1.677
  513W        W  535   1.675   0.757   0.732
  514W        W  536   2.180   4.059   3.582
  515W        W  537   1.233   3.619   1.204
  516W        W  538   0.716   2.163   0.266
  517W        W  539   4.084   4.092   0.284
  518W        W  540   1.219   0.263   3.138
  519W        W  541   0.733   3.612   3.118
  520W        W  542   3.619   0.272   4.074
  521W        W  543   3.143   1.193   3.125
  522W        W  544   1.704   1.674   3.130
  523W        W  545   1.681   2.630   0.286
  524W        W  546   4.102   2.187   0.251
  525W        W  547   0.762   3.149   1.218
  526W        W  548   1.702   4.067   0.266
  527W        W  549   4.079   3.138   3.604
  528W        W  550   4.073   3.612   2.154
  529W        W  551   2.162   2.178   3.594
  530W        W  552   3.588   0.739   4.065
  531W        W  553   3.148   3.598   0.279
  532W        W  554   1.218   3.123   1.233
  533W        W  555   3.132   2.660   0.275
  534W        W  556   2.194   3.614   1.226
  535W        W  557   1.715   2.671   3.590
  536W        W  558   3.122   0.721   2.630
  537W        W  559   0.744   3.124   2.186
  538W        W  560   3.126   3.126   2.630
  539W        W  561   0.747   0.735   3.595
  540W        W  562   2.653   0.267   0.282
  541W        W  563   3.114   0.271   2.646
  542W        W  564   0.747   0.270   3.584
  543W        W  565   0.241   2.160   1.679
  544W        W  566   1.706   3.610   1.235
  545W        W  567   1.193   2.653   0.733
  546W        W  568   1.696   0.250   2.644
  547W        W  569   3.147   1.718   2.188
  548W        W  570   2.639   2.633   3.611
  549W        W  571   3.590   4.078   3.143
  550W        W  572   3.136   0.279   1.194
  551W        W  573   2.662   4.067   1.239
  552W        W  574   3.605   3.122   0.750
  553W        W  575   1.710   3.607   0.739
  554W        W  576   4.062   4.058   2.660
  555W        W  577   0.762   0.740   4.076
  556W        W  578   4.060   2.171   3.613
  557W        W  579   2.179   0.277   4.104
  558W        W  580   3.140   2.158   0.240
  559W        W  581   0.279   3.118   2.657
  560W        W  582   1.224   1.220   1.709
  561W        W  583   3.596   2.641   0.241
  562W        W  584   3.137   1.678   3.587
  563W        W  585   0.732   4.094   1.203
  564W        W  586   3.139   4.073   4.085
  565W        W  587   3.588   3.586   1.213
  566W        W  588   4.064   1.201   3.134
  567W        W  589   0.748   1.678   1.197
  568W        W  590   0.732   2.663   0.744
  569W        W  591   4.057   2.173   0.733
  570W        W  592   1.205   1.238   2.634
  571W        W  593   1.195   0.259   0.733
  572W        W  594   0.741   2.663   4.101
  573W        W  595   3.583   2.642   4.077
  574W        W  596   3.597   3.147   0.274
  575W        W  597   1.700   1.696   0.745
  576W        W  598   3.599   4.057   0.272
  577W        W  599   2.153   2.641   1.211
  578W        W  600   3.580   1.710   3.131
  579W        W  601   3.103   3.108   1.704
  580W        W  602   2.158   0.728   0.259
  581W        W  603   3.109   2.190   0.721
  582W        W  604   4.062   2.186   2.663
  583W        W  605   2.646   0.246   4.102
  584W        W  606   3.617   1.198   3.138
  585W        W  607   3.580   1.204   2.658
  586W        W  608   2.639   4.068   0.737
  587W        W  609   2.152   0.730   0.736
  588W        W  610   2.180   0.720   4.074
  589W        W  611   3.146   0.256   3.105
  590W        W  612   4.088   1.225   2.660
  591W        W  613   2.155   0.260   1.230
  592W        W  614   1.237   0.251   2.182
  593W        W  615   2.645   2.178   0.733
  594W        W  616   1.210   4.063   3.113
  595W        W  617   0.259   1.708   3.598
  596W        W  618   1.197   0.737   0.757
  597W        W  619   2.645   3.620   2.626
  598W        W  620   3.146   2.649   3.617
  599W        W  621   1.210   0.257   2.649
  600W        W  622   4.067   1.200   4.075
  601W        W  623   4.082   0.275   0.716
  602W        W  624   0.274   3.584   2.187
  603W        W  625   3.103   2.166   1.233
  604W        W  626   2.159   2.165   0.763
  605W        W  627   0.760   1.209   1.707
  606W        W  628   3.599   0.253   3.596
  607W        W  629   4.098   3.142   2.670
  608W        W  630   2.667   2.188   0.256
  609W        W  631   2.667   1.673   0.262
  610W        W  632   3.615   0.281   0.258
  611W        W  633   1.232   0.760   3.144
  612W        W  634   2.634   3.130   3.107
  613W        W  635   0.759   3.590   1.683
  614W        W  636   1.711   4.090   3.129
  615W        W  637   2.183   0.733   3.122
  616W        W  638   0.275   3.144   1.239
  617W        W  639   3.617   2.172   1.236
  618W        W  640   0.726   3.129   3.121
  619W        W  641   4.078   1.673   4.063
  620W        W  642   0.249   3.601   4.088
  621W        W  643   3.131   0.262   3.589
  622W        W  644   4.073   0.243   1.712
  623W        W  645   4.090   2.666   0.254
  624W        W  646   3.135   1.687   2.642
  625W        W  647   4.084   2.647   3.139
  626W        W  648   2.194   4.096   0.265
  627W        W  649   3.112   3.609   2.163
  628W        W  650   4.072   0.738   1.676
  629W        W  651   3.114   1.699   0.245
  630W        W  652   0.721   0.741   0.242
  631W        W  653   3.139   0.736   1.707
  632W        W  654   1.708   1.212   4.065
  633W        W  655   3.590   3.593   0.741
  634W        W  656   3.595   0.751   0.243
  635W        W  657   3.622   2.654   1.698
  636W        W  658   1.227   3.130   4.084
  637W        W  659   3.603   3.116   4.082
  638W        W  660   3.108   1.197   4.095
  639W        W  661   0.251   2.648   3.585
  640W        W  662   0.240   0.760   3.586
  641W        W  663   1.208   2.632   3.612
  642W        W  664   0.286   4.084   4.061
  643W        W  665   3.124   3.599   1.672
  644W        W  666   2.658   4.067   2.192
  645W        W  667   2.645   0.750   1.674
  646W        W  668   3.601   1.223   1.216
  647W        W  669   0.239   4.104   3.609
  648W        W  670   1.218   3.596   3.627
  649W        W  671   1.210   1.210   2.194
  650W        W  672   0.734   3.113   3.597
  651NA      NA  673   0.727   2.189   1.671
  652NA      NA  674   4.063   3.102   2.183
  653NA      NA  675   0.758   2.650   3.610
  654NA      NA  676   3.597   2.148   0.742
  655NA      NA  677   4.061   0.247   1.214
  656NA      NA  678   0.283   2.189   0.285
  657NA      NA  679   4.082   0.750   2.655
  658CL      CL  680   0.273   2.176   0.720
  659CL      CL  681   1.672   4.095   1.218
  660CL      CL  682   0.283   2.650   0.740
  661CL      CL  683   1.197   3.620   4.061
  662CL      CL  684   0.272   2.648   4.083
  663CL      CL  685   3.621   2.645   3.620
  664CL      CL  686   0.258   0.278   2.169
   4.29502   4.29502   4.29502   0.00000   0.00000   0.00000   0.00000   0.00000   0.00000
