FA2-ASN Glycan in aqueous solution
  686
    1ASN      O    1   4.461   0.220   2.085 -0.4618  0.0962 -0.2653
    1ASN     CB    2   4.467  -0.020   1.882 -0.1922  0.0083  0.0890
    21BG     C1    3   4.565  -0.304   1.575 -0.4244  0.1313  0.3132
    21BG     C3    4   4.406  -0.433   1.388 -0.5530  0.1484  0.0890
    21BG     C2    5   4.059  -0.695   1.426 -0.1146  0.0420 -0.3192
    21BG     C4    6   4.625  -0.218   1.437 -0.0256  0.0893  0.1932
    32AF     C1    7   4.914  -0.323   1.423  0.3283  0.2026 -0.0175
    32AF     C2    8   5.042  -0.113   1.391  0.0156 -0.2540 -0.2004
    32AF     C4    9   5.092  -0.443   1.311 -0.3179  0.2092  0.0279
    43BG     C1   10   4.663  -0.258   1.063 -0.3004 -0.0674  0.5842
    43BG     C2   11   4.300  -0.139   1.047  0.0206 -0.0385  0.0144
    43BG     C3   12   4.634  -0.063   0.907 -0.0527  0.0494 -0.1548
    43BG     C4   13   4.808  -0.255   1.125 -0.1812 -0.3259 -0.0538
    54BM     C1   14   4.694  -0.534   0.860  0.1147 -0.2661  0.0323
    54BM     C2   15   4.805  -0.684   0.931 -0.0405  0.0649 -0.3666
    54BM     C4   16   4.656  -0.568   0.663 -0.0807  0.2141 -0.0784
    65AM     C1   17   4.732  -0.328   0.428 -0.1055  0.2070 -0.3681
    65AM     C2   18   4.889  -0.151   0.378  0.1067 -0.3669 -0.3677
    65AM     C4   19   4.513  -0.167   0.245 -0.1164  0.1342  0.0213
    76BG     C1   20   5.068  -0.314   0.293  0.3405  0.0674 -0.0814
    76BG     C2   21   5.295  -0.002   0.196  0.2530 -0.0102 -0.0342
    76BG     C3   22   5.117  -0.185   0.050  0.0282  0.2304  0.0529
    76BG     C4   23   5.083  -0.422   0.206  0.3100  0.1761 -0.2165
    87AM     C1   24   4.965  -0.825   0.810 -0.0529  0.4457 -0.4825
    87AM     C2   25   4.990  -0.960   0.596 -0.1232 -0.1674 -0.1191
    87AM     C4   26   4.949  -1.005   0.923 -0.0405  0.1417 -0.2212
    98BG     C1   27   5.190  -0.914   0.425 -0.0224 -0.3975  0.0161
    98BG     C2   28   5.477  -0.563   0.566  0.1368  0.0690 -0.0083
    98BG     C3   29   5.284  -0.709   0.305 -0.5378  0.0307  0.3887
    98BG     C4   30   5.144  -0.969   0.236  0.1772 -0.0558 -0.1804
   10W        W   31   1.115   4.594   1.669  0.0654  0.0733  0.1120
   11W        W   32   4.893   1.712   0.678  0.1623  0.0157  0.2084
   12W        W   33   0.962   5.143   0.967 -0.1266 -0.0053  0.2857
   13W        W   34   0.423   5.242   0.977  0.3482 -0.2739 -0.3629
   14W        W   35   3.770   2.263   1.075 -0.3981 -0.1216  0.0904
   15W        W   36   5.818   5.095   0.727 -0.0965  0.0442  0.1821
   16W        W   37   4.007   2.701   0.314 -0.4224  0.1775  0.4053
   17W        W   38   3.601   4.707   1.153  0.1319 -0.0491  0.2017
   18W        W   39   1.036   3.689   0.005 -0.2291 -0.0421  0.1692
   19W        W   40   0.873   0.447   1.633 -0.0460 -0.1641  0.0792
   20W        W   41   0.790   2.670   1.263 -0.1399  0.1021 -0.0938
   21W        W   42   2.007   3.794   0.587  0.2392  0.2540 -0.1344
   22W        W   43   2.776   2.672   1.266 -0.2324 -0.3008 -0.0767
   23W        W   44   1.998   2.706   1.579  0.2869  0.1109  0.0946
   24W        W   45   2.663   1.343   0.788 -0.0444  0.0268 -0.1906
   25W        W   46   4.868   0.934   0.290 -0.2198  0.0449  0.0687
   26W        W   47   0.270   2.068   1.884  0.3492  0.1039  0.1373
   27W        W   48   4.191   0.480   1.770  0.0099  0.0939 -0.0286
   28W        W   49   1.305   1.251   0.943 -0.0697 -0.3038 -0.0522
   29W        W   50   2.659   1.245   1.745 -0.2588 -0.2386 -0.0476
   30W        W   51   0.912   1.062   0.513 -0.1020 -0.0053  0.1962
   31W        W   52   2.098   5.220   0.558  0.0439  0.0938 -0.1518
   32W        W   53   3.948   3.393   1.490  0.1554 -0.1888 -0.1444
   33W        W   54   4.361   5.288   1.038 -0.4603  0.0468 -0.0320
   34W        W   55   2.879   2.121   1.550 -0.1475 -0.2663  0.2240
   35W        W   56   3.337   4.975   1.433 -0.0625 -0.0593  0.2292
   36W        W   57   3.970   0.087   2.111  0.1807  0.1997  0.2572
   37W        W   58   3.228   1.857   1.336  0.1178  0.1718 -0.3405
   38W        W   59   0.441   4.103   2.161  0.0012  0.0950 -0.1126
   39W        W   60   1.604   2.452   1.596 -0.0994  0.1263  0.0235
   40W        W   61   3.893   5.256   0.053  0.0075  0.0131 -0.1303
   41W        W   62   3.965   1.819   1.406  0.0346 -0.0785  0.1646
   42W        W   63   5.366   1.137   2.085  0.1678 -0.2240 -0.3941
   43W        W   64   0.128   2.784   0.872  0.0713 -0.1378 -0.3636
   44W        W   65   2.337   3.792   0.149 -0.0950  0.1963 -0.2147
   45W        W   66   4.392   2.943   1.240 -0.2726 -0.2026  0.4239
   46W        W   67   3.552   2.738   0.159 -0.1347  0.0128  0.3830
   47W        W   68   0.814   5.108   1.424  0.1858  0.0593  0.2814
   48W        W   69   2.811   4.559   0.274  0.1007 -0.0360  0.1970
   49W        W   70   0.447   2.901   2.218 -0.0734  0.0252 -0.0368
   50W        W   71   2.172   1.304   1.552 -0.1427 -0.1902 -0.1244
   51W        W   72   4.659   4.998   2.005  0.2143 -0.1007 -0.0420
   52W        W   73   1.660   1.648   1.695  0.1036 -0.2804  0.0298
   53W        W   74   2.478   3.964   1.813 -0.1837  0.3540 -0.0921
   54W        W   75   3.371   5.114   0.867  0.3302  0.0026  0.0134
   55W        W   76   4.125   0.852   0.910 -0.0530  0.1407  0.0927
   56W        W   77   2.438   1.680   0.185  0.0892 -0.0222 -0.0146
   57W        W   78   4.222   0.624   0.456 -0.2906  0.0588  0.1207
   58W        W   79   3.215   1.628   2.157 -0.2129  0.3283  0.0683
   59W        W   80   1.502   4.288   1.539  0.0453  0.0320 -0.2197
   60W        W   81   1.649   0.771   0.031  0.1238 -0.2075 -0.1185
   61W        W   82   0.431   5.424   0.536  0.5682  0.0003 -0.3484
   62W        W   83   2.098   0.030   2.165  0.0816 -0.0166 -0.3022
   63W        W   84   5.648   3.277   1.846  0.0173 -0.2100 -0.0705
   64W        W   85   5.470   5.602   1.265 -0.1206  0.1468  0.2029
   65W        W   86   0.019   2.264   1.416 -0.0647  0.0092 -0.1980
   66W        W   87   4.849   1.179   2.120  0.0734  0.0458 -0.3101
   67W        W   88   0.273   3.387   2.112 -0.0871 -0.2421  0.1231
   68W        W   89   1.021   1.699   0.691  0.0625  0.2112 -0.5098
   69W        W   90   1.422   2.867   0.116  0.0368  0.1585 -0.0969
   70W        W   91   4.278   5.541   2.192  0.3417 -0.1499 -0.1500
   71W        W   92   1.828   1.247   0.789 -0.0817 -0.0600  0.1985
   72W        W   93   0.626   3.726   1.969 -0.0023  0.1315 -0.1786
   73W        W   94   4.305   1.450   2.172  0.4582  0.2494 -0.3300
   74W        W   95   3.360   1.124   0.280 -0.0959  0.1161 -0.0187
   75W        W   96   0.253   0.587   1.993 -0.1696 -0.2630  0.2804
   76W        W   97   0.097   5.612   0.141  0.0250  0.1636  0.1824
   77W        W   98   2.720   2.530   1.872  0.0119 -0.1276  0.2590
   78W        W   99   0.527   2.465   0.390 -0.1107 -0.0529  0.0244
   79W        W  100   5.141   3.904   0.583 -0.1110  0.0084  0.2844
   80W        W  101   4.195   4.761   1.134 -0.0907 -0.0010 -0.1560
   81W        W  102   0.990   3.581   0.528 -0.0263 -0.1123  0.2139
   82W        W  103   2.219   4.313   1.128  0.0201  0.3040  0.0938
   83W        W  104   5.592   0.582   1.142  0.0502 -0.2416  0.0129
   84W        W  105   5.892   3.751   1.816  0.3456  0.1247 -0.1734
   85W        W  106   4.588   0.717   1.835  0.0117 -0.0784  0.3525
   86W        W  107   4.408   0.876   0.051  0.0645  0.0180  0.2040
   87W        W  108   3.376   5.238   0.036  0.0402 -0.1146 -0.1447
   88W        W  109   3.262   4.263   1.292  0.2128 -0.1585 -0.0822
   89W        W  110   5.736   5.828   2.038 -0.0985 -0.1859  0.0488
   90W        W  111   2.756   3.480   0.198  0.3791 -0.1289  0.1874
   91W        W  112   3.858   0.953   0.228 -0.0064  0.4877  0.3676
   92W        W  113   1.423   2.063   0.624  0.0450 -0.3339 -0.2670
   93W        W  114   0.426   4.344   0.866  0.1108 -0.1169 -0.1680
   94W        W  115   4.764   0.145   1.232  0.2889  0.0156  0.0808
   95W        W  116   2.035   0.847   1.666  0.2434 -0.1186  0.2630
   96W        W  117   3.402   5.750   1.539  0.5835 -0.0175  0.0990
   97W        W  118   3.678   5.366   0.580  0.1614  0.4910  0.3093
   98W        W  119   1.370   1.472   0.374 -0.2305 -0.2269  0.4366
   99W        W  120   5.059   2.228   0.569  0.2883  0.0401  0.1478
  100W        W  121   0.674   3.828   0.263  0.0696  0.1807  0.1878
  101W        W  122   2.496   2.911   1.615 -0.0703  0.1960  0.1541
  102W        W  123   5.538   3.988   1.300  0.2553 -0.0079 -0.2342
  103W        W  124   4.058   0.502   0.001 -0.3662 -0.0813 -0.2105
  104W        W  125   5.731   3.336   0.140 -0.1837 -0.0224 -0.2885
  105W        W  126   5.283   1.955   1.658  0.1115  0.1227 -0.1197
  106W        W  127   5.772   0.887   1.870  0.3828 -0.1430  0.3450
  107W        W  128   2.896   5.745   1.557 -0.0463 -0.2875 -0.0464
  108W        W  129   4.942   0.997   1.631 -0.1511  0.0475 -0.0087
  109W        W  130   2.742   3.087   2.091 -0.0385  0.1800  0.1192
  110W        W  131   1.414   0.953   0.484 -0.6160 -0.1924 -0.1625
  111W        W  132   0.997   5.570   1.441  0.0316 -0.1060  0.1311
  112W        W  133   0.238   0.160   2.258  0.0671 -0.0819 -0.2065
  113W        W  134   5.843   0.019   1.404 -0.2659  0.0803  0.1873
  114W        W  135   3.208   2.951   0.632  0.2074 -0.2159  0.2374
  115W        W  136   1.951   1.676   1.230  0.0880  0.2582  0.2393
  116W        W  137   1.289   2.545   2.000  0.1044  0.2783  0.1845
  117W        W  138   0.342   1.210   1.115 -0.2264 -0.1148  0.0210
  118W        W  139   2.354   3.100   0.166  0.0736  0.3938 -0.1229
  119W        W  140   2.184   5.845   0.382 -0.1422  0.0046 -0.1982
  120W        W  141   0.623   4.540   1.685 -0.1613  0.1170  0.4377
  121W        W  142   5.695   3.133   0.642 -0.1677 -0.1668  0.1122
  122W        W  143   3.342   1.957   0.832 -0.0169  0.1078 -0.3131
  123W        W  144   2.132   5.388   1.850  0.2116  0.1925 -0.0956
  124W        W  145   5.226   0.253   1.148 -0.2110  0.1013  0.0474
  125W        W  146   4.990   1.143   0.733  0.0320 -0.0324  0.0383
  126W        W  147   1.127   3.569   1.784  0.1804  0.2348 -0.0354
  127W        W  148   3.139   3.019   1.117  0.2040 -0.0974 -0.1285
  128W        W  149   3.636   0.150   1.155  0.2003 -0.2754  0.3377
  129W        W  150   0.081   0.184   0.602 -0.1559  0.1807 -0.0538
  130W        W  151   0.089   3.793   0.060 -0.0833 -0.0291 -0.0414
  131W        W  152   5.583   4.915   0.355  0.1742  0.0140  0.2576
  132W        W  153   5.260   5.320   0.913  0.2910 -0.0280 -0.1968
  133W        W  154   4.352   5.668   0.684  0.2170  0.4024  0.0506
  134W        W  155   3.444   1.433   1.708 -0.2999 -0.3492 -0.1933
  135W        W  156   1.609   4.001   1.131  0.0592  0.2997 -0.0009
  136W        W  157   2.340   3.426   0.526  0.0679 -0.2256  0.0319
  137W        W  158   1.667   1.612   2.194 -0.0912  0.1523 -0.4912
  138W        W  159   2.500   3.814   0.804 -0.2768 -0.0384 -0.1359
  139W        W  160   4.900   1.787   1.440  0.0850  0.0918  0.2657
  140W        W  161   2.231   1.322   1.071  0.2517 -0.1394 -0.0546
  141W        W  162   3.154   4.211   0.242 -0.1367 -0.2040 -0.0554
  142W        W  163   1.615   3.497   2.021  0.0158 -0.0455  0.1067
  143W        W  164   1.155   4.082   0.296  0.1856  0.5863  0.0365
  144W        W  165   0.922   1.545   1.132  0.1258 -0.3624  0.0362
  145W        W  166   5.204   2.555   0.977  0.1285 -0.0294  0.0105
  146W        W  167   4.791   5.232   0.276 -0.0698 -0.0766 -0.1184
  147W        W  168   0.524   4.392   0.337  0.1742  0.0749 -0.3351
  148W        W  169   5.714   3.668   0.473  0.0518 -0.1768  0.0856
  149W        W  170   3.630   5.571   2.023 -0.1958  0.1302 -0.1365
  150W        W  171   4.774   0.138   0.081  0.0552  0.1206 -0.1283
  151W        W  172   3.835   0.589   1.337  0.1852  0.0050  0.0335
  152W        W  173   0.212   4.393   1.404  0.0942 -0.2539  0.1284
  153W        W  174   5.576   2.882   0.192 -0.0106  0.1622  0.0049
  154W        W  175   1.054   2.992   0.995  0.0560  0.0440 -0.0706
  155W        W  176   5.650   3.357   1.184 -0.1036 -0.4091  0.1032
  156W        W  177   1.255   1.146   2.221 -0.0327  0.0492 -0.1727
  157W        W  178   0.001   1.923   0.040 -0.1238  0.2519 -0.0339
  158W        W  179   2.117   5.476   0.962 -0.4010  0.3553  0.1515
  159W        W  180   5.454   3.737   0.882  0.1805  0.3233  0.1539
  160W        W  181   2.549   4.152   0.402  0.0120 -0.0834 -0.3507
  161W        W  182   3.788   2.246   0.393 -0.0789  0.2785  0.0149
  162W        W  183   5.295   4.522   0.240 -0.0487 -0.2768  0.0440
  163W        W  184   2.858   4.100   1.042  0.1022  0.1253 -0.2838
  164W        W  185   0.164   4.879   2.102 -0.1723  0.0915  0.3930
  165W        W  186   5.668   4.392   1.599  0.1724  0.2234  0.1321
  166W        W  187   2.333   2.751   2.071 -0.2199 -0.1164 -0.0341
  167W        W  188   2.281   2.801   0.576 -0.3285  0.1344 -0.0582
  168W        W  189   5.766   1.782   1.762  0.0632  0.1290 -0.2441
  169W        W  190   4.189   1.303   0.397  0.4288  0.0786 -0.1983
  170W        W  191   2.309   1.224   0.441  0.3670 -0.0723  0.0779
  171W        W  192   0.870   4.952   1.926 -0.0264  0.4650 -0.2031
  172W        W  193   1.680   3.303   1.081  0.1127 -0.0241 -0.0917
  173W        W  194   0.992   5.562   0.395 -0.0177  0.0235  0.0559
  174W        W  195   5.623   4.608   1.154 -0.1783  0.0498 -0.1273
  175W        W  196   5.558   2.849   1.086  0.3952  0.4297  0.1499
  176W        W  197   4.528   1.328   0.760 -0.2059  0.1169  0.0779
  177W        W  198   2.808   0.467   0.913 -0.2702  0.0446 -0.1109
  178W        W  199   0.156   2.943   0.372 -0.0284 -0.0430 -0.0795
  179W        W  200   5.455   2.324   0.056 -0.0401 -0.2306 -0.0059
  180W        W  201   2.550   4.633   1.277 -0.0005  0.1520  0.0569
  181W        W  202   0.119   4.438   1.913 -0.2472 -0.1233 -0.0567
  182W        W  203   0.730   1.166   1.526 -0.1466  0.1906  0.1357
  183W        W  204   3.136   2.560   1.623  0.0527  0.3653 -0.0820
  184W        W  205   3.672   0.972   1.074 -0.1020  0.2055 -0.1377
  185W        W  206   2.516   0.070   1.400  0.0679  0.0874 -0.0830
  186W        W  207   1.018   2.284   0.057  0.2409  0.1210 -0.1224
  187W        W  208   0.095   1.789   1.009  0.3575 -0.2078 -0.2394
  188W        W  209   2.096   3.113   0.949 -0.0014 -0.2204  0.0456
  189W        W  210   3.884   4.579   1.937  0.0468 -0.2315  0.2410
  190W        W  211   5.464   4.323   0.725 -0.2641 -0.3364  0.2595
  191W        W  212   2.983   5.650   2.102  0.1859  0.3427  0.1369
  192W        W  213   4.162   5.143   0.577 -0.0234  0.2295 -0.1919
  193W        W  214   5.347   2.929   2.040  0.2898 -0.3122  0.1858
  194W        W  215   3.684   1.472   2.266 -0.0733 -0.4533  0.0924
  195W        W  216   2.011   0.409   0.909 -0.3248 -0.1105  0.1462
  196W        W  217   0.792   2.123   0.562  0.0800  0.0457  0.4735
  197W        W  218   0.393   5.266   2.272 -0.1995  0.1016 -0.1996
  198W        W  219   4.460   3.885   1.180  0.2377 -0.1621  0.1228
  199W        W  220   4.035   0.965   2.019 -0.0312  0.0439  0.0371
  200W        W  221   0.224   2.763   1.365 -0.0157 -0.1975  0.2526
  201W        W  222   4.321   0.467   1.181  0.3519  0.0176  0.1594
  202W        W  223   3.200   3.936   1.793 -0.1607  0.2487 -0.0189
  203W        W  224   4.722   3.066   0.306 -0.2467  0.2615 -0.0179
  204W        W  225   3.855   5.150   1.095 -0.1048 -0.0006 -0.3668
  205W        W  226   3.904   4.864   1.525  0.1370 -0.1341  0.3262
  206W        W  227   2.695   5.847   0.176 -0.1655 -0.0593  0.0693
  207W        W  228   1.571   4.523   0.214 -0.1179  0.1505  0.0892
  208W        W  229   3.415   3.827   0.008  0.0581 -0.1942  0.1999
  209W        W  230   4.300   2.495   1.283  0.3437  0.2920 -0.5372
  210W        W  231   3.790   4.387   1.497  0.1703  0.1274  0.0169
  211W        W  232   5.165   4.372   1.558  0.0903  0.0846  0.3249
  212W        W  233   4.326   0.033   1.434  0.3206  0.0758  0.0637
  213W        W  234   2.459   5.122   1.068  0.2143 -0.0767 -0.2691
  214W        W  235   4.680   4.259   1.435 -0.1702  0.1680  0.1717
  215W        W  236   0.481   2.334   0.954 -0.2428 -0.1128  0.3358
  216W        W  237   1.555   3.798   0.342  0.0153 -0.0833  0.1030
  217W        W  238   2.382   0.523   1.191  0.0305  0.1391 -0.2478
  218W        W  239   2.757   3.100   0.510 -0.2231 -0.2974 -0.2396
  219W        W  240   3.147   0.508   0.540 -0.1485 -0.2948  0.0452
  220W        W  241   3.149   2.426   2.265  0.3990  0.1794 -0.0379
  221W        W  242   5.880   0.786   0.140  0.0077  0.0065  0.1069
  222W        W  243   2.245   1.339   2.025  0.3376  0.2860  0.1061
  223W        W  244   3.186   5.264   1.808 -0.0017  0.0178 -0.1227
  224W        W  245   4.179   4.158   1.945 -0.1548 -0.0254 -0.1384
  225W        W  246   3.752   1.022   1.564  0.1947  0.0891 -0.1887
  226W        W  247   4.367   2.863   0.586 -0.3143  0.1977 -0.0048
  227W        W  248   0.379   0.848   1.526 -0.2604 -0.2989  0.0522
  228W        W  249   1.992   4.586   1.513 -0.3766 -0.1949 -0.0047
  229W        W  250   5.214   0.129   2.088  0.1086  0.2711  0.1519
  230W        W  251   4.484   2.074   1.490  0.3070  0.1199 -0.0694
  231W        W  252   0.615   0.068   0.437 -0.2057 -0.0368 -0.2050
  232W        W  253   3.455   0.582   0.127  0.2038  0.2221  0.0207
  233W        W  254   4.571   2.580   0.136  0.0245 -0.1677 -0.1185
  234W        W  255   3.579   4.987   1.898  0.1673 -0.0212 -0.2717
  235W        W  256   2.001   0.410   0.236 -0.2267  0.0385  0.1193
  236W        W  257   4.241   2.092   1.026  0.1921 -0.0360 -0.0073
  237W        W  258   1.716   5.599   1.995  0.3264 -0.0201 -0.1470
  238W        W  259   1.063   0.143   0.241 -0.1567  0.0192  0.0131
  239W        W  260   0.661   5.734   2.238 -0.3166  0.0805  0.0178
  240W        W  261   1.489   5.860   1.478 -0.2598  0.2325  0.2592
  241W        W  262   1.840   0.426   1.453 -0.1118  0.0900  0.0376
  242W        W  263   1.087   2.578   0.492 -0.0972 -0.1786  0.2212
  243W        W  264   3.110   1.379   1.265  0.0421 -0.0824 -0.1130
  244W        W  265   0.662   2.816   0.777 -0.0781 -0.0612 -0.3501
  245W        W  266   5.170   3.368   0.579  0.0941 -0.0288  0.0027
  246W        W  267   5.460   0.397   0.685 -0.0674  0.2590 -0.1790
  247W        W  268   2.029   2.225   1.762 -0.2892 -0.1565  0.0116
  248W        W  269   5.314   0.616   1.599  0.1689  0.1541  0.2065
  249W        W  270   5.383   0.852   0.290  0.1509 -0.0655  0.1074
  250W        W  271   3.538   2.222   1.480  0.1049  0.1074 -0.3889
  251W        W  272   4.637   4.056   0.773 -0.0521 -0.1059 -0.0190
  252W        W  273   2.046   2.327   1.233 -0.1476  0.2627  0.1158
  253W        W  274   3.917   3.127   1.944 -0.0940 -0.2050  0.1270
  254W        W  275   1.030   4.079   1.734 -0.2440  0.3157  0.1228
  255W        W  276   5.597   4.638   2.097  0.1575  0.0475 -0.0292
  256W        W  277   3.768   2.971   0.665  0.0397 -0.0574  0.0340
  257W        W  278   2.967   3.148   1.593  0.1778 -0.1947  0.0046
  258W        W  279   4.170   5.040   1.908  0.1011  0.0101  0.2035
  259W        W  280   1.370   2.479   0.949 -0.2303 -0.3875 -0.1486
  260W        W  281   3.282   3.869   0.913  0.2491 -0.0056 -0.0527
  261W        W  282   3.955   1.444   1.788 -0.2306  0.1340 -0.1512
  262W        W  283   5.708   2.301   1.905 -0.2973  0.0714  0.2082
  263W        W  284   1.872   2.021   0.171 -0.0439 -0.2707  0.4356
  264W        W  285   4.512   3.896   0.120 -0.2915  0.1854  0.1386
  265W        W  286   3.563   5.728   0.256  0.0653  0.0951  0.2297
  266W        W  287   3.131   3.070   0.194  0.1128  0.0112 -0.0258
  267W        W  288   5.105   0.670   2.115  0.2252  0.1167 -0.1072
  268W        W  289   4.258   3.372   0.548 -0.1896 -0.0356  0.0694
  269W        W  290   1.220   4.292   0.979  0.1244  0.0108 -0.0639
  270W        W  291   5.114   2.480   1.894  0.1778 -0.1909  0.1224
  271W        W  292   2.831   1.830   0.690  0.2423 -0.0588  0.1366
  272W        W  293   4.374   1.836   0.610 -0.0221  0.1529  0.1721
  273W        W  294   0.824   0.517   0.408 -0.0053  0.1525 -0.2892
  274W        W  295   3.157   0.133   0.123  0.1079  0.0114  0.0376
  275W        W  296   0.843   1.692   1.571  0.0335  0.1081  0.1398
  276W        W  297   2.869   4.335   2.054  0.0323 -0.2972 -0.0776
  277W        W  298   4.592   0.815   0.792 -0.2144  0.1278  0.1280
  278W        W  299   3.160   0.969   0.891 -0.1849 -0.2341 -0.0038
  279W        W  300   2.947   4.843   1.033 -0.2888  0.1806 -0.0410
  280W        W  301   3.194   4.458   0.817 -0.3178  0.1765 -0.1074
  281W        W  302   1.224   3.333   1.348  0.1082 -0.0950  0.0388
  282W        W  303   5.375   2.336   1.384  0.1476  0.0790  0.1381
  283W        W  304   0.002   5.419   1.090  0.0371 -0.0467  0.3669
  284W        W  305   5.539   2.043   0.470  0.0562 -0.3402  0.1003
  285W        W  306   4.572   3.612   1.665  0.1137 -0.0856 -0.2917
  286W        W  307   0.751   1.996   2.010 -0.3217 -0.3407  0.1421
  287W        W  308   2.791   0.205   1.963  0.0918  0.0296 -0.0166
  288W        W  309   4.635   4.513   1.006  0.1906  0.1998 -0.1464
  289W        W  310   2.088   2.459   0.199 -0.0517  0.2313 -0.0110
  290W        W  311   4.128   4.242   1.084 -0.3935 -0.2815 -0.0592
  291W        W  312   4.625   2.286   1.896  0.0399  0.2109  0.2097
  292W        W  313   2.623   4.821   2.141  0.0964  0.1177 -0.1208
  293W        W  314   2.185   4.726   0.898  0.0020  0.1615 -0.0669
  294W        W  315   0.306   0.526   0.342 -0.0212 -0.1097  0.1430
  295W        W  316   4.276   2.708   1.890 -0.1980 -0.1892  0.0881
  296W        W  317   1.314   5.117   0.506  0.0676 -0.0810  0.4751
  297W        W  318   0.053   2.386   0.089  0.0299  0.0613 -0.4230
  298W        W  319   3.632   4.202   0.942 -0.3817  0.0413 -0.0811
  299W        W  320   4.672   0.458   0.440  0.0534 -0.0750 -0.0721
  300W        W  321   1.919   5.017   1.268  0.2506  0.0530  0.1306
  301W        W  322   2.064   1.817   2.032 -0.1622 -0.2527 -0.2428
  302W        W  323   5.480   1.782   2.159  0.2161 -0.1208  0.0722
  303W        W  324   5.850   5.411   1.584  0.1027 -0.0625 -0.1737
  304W        W  325   4.843   2.813   1.136  0.0426  0.2734 -0.1719
  305W        W  326   0.210   2.552   1.793 -0.0151 -0.1922 -0.0378
  306W        W  327   4.685   1.759   1.970  0.2385 -0.0022  0.0506
  307W        W  328   1.670   4.207   0.640 -0.5405  0.0395  0.0469
  308W        W  329   2.448   5.757   1.890 -0.1675 -0.0626  0.0844
  309W        W  330   2.733   2.690   0.786  0.1032  0.2081  0.0380
  310W        W  331   3.927   5.852   0.700  0.2155  0.1779 -0.0848
  311W        W  332   2.263   4.726   0.201  0.0222 -0.3059 -0.1148
  312W        W  333   2.781   2.635   0.265  0.0994  0.1878  0.3278
  313W        W  334   1.599   2.119   2.011  0.0973 -0.1717  0.2846
  314W        W  335   0.351   4.008   1.671 -0.3040 -0.1609 -0.0399
  315W        W  336   4.285   4.531   1.559 -0.1590  0.3501  0.1693
  316W        W  337   0.793   4.272   1.250 -0.2399  0.0286 -0.0460
  317W        W  338   1.927   4.112   0.202  0.4077 -0.6228  0.0267
  318W        W  339   2.177   4.272   0.664  0.0506 -0.0242 -0.0714
  319W        W  340   2.103   4.806   1.971  0.1295  0.0585 -0.1451
  320W        W  341   2.926   0.645   0.052 -0.2089  0.1171 -0.2042
  321W        W  342   0.903   3.508   0.984 -0.0210  0.0173  0.1877
  322W        W  343   4.965   4.536   0.641 -0.0595  0.0903  0.0665
  323W        W  344   3.942   5.656   1.198  0.0381 -0.0054 -0.3991
  324W        W  345   1.187   4.727   1.192  0.3472  0.1082 -0.0522
  325W        W  346   4.240   1.938   1.900 -0.2256 -0.2552  0.0952
  326W        W  347   3.613   3.984   0.514 -0.2434  0.1914 -0.3022
  327W        W  348   2.390   4.316   2.225  0.3912  0.2386  0.1739
  328W        W  349   4.649   3.456   2.142  0.0877  0.2077 -0.1956
  329W        W  350   3.886   0.458   0.867 -0.0668  0.1236  0.0816
  330W        W  351   0.937   2.139   1.052 -0.2402  0.1887  0.2818
  331W        W  352   0.320   1.543   1.553 -0.0440 -0.0401 -0.0310
  332W        W  353   2.561   5.010   0.491  0.0171  0.0651  0.0220
  333W        W  354   2.635   4.444   0.791 -0.1610 -0.2072 -0.0851
  334W        W  355   5.788   0.513   1.571 -0.0702 -0.0373  0.5431
  335W        W  356   5.692   1.358   0.287  0.3198 -0.1767 -0.0711
  336W        W  357   2.596   2.178   1.100  0.0385  0.1151 -0.0573
  337W        W  358   1.698   5.098   2.051 -0.0640 -0.0272  0.3152
  338W        W  359   1.564   3.713   1.542  0.0466 -0.0183  0.0577
  339W        W  360   5.251   1.010   1.262  0.0319  0.4005 -0.0550
  340W        W  361   5.331   5.508   1.762 -0.1280 -0.0242 -0.0203
  341W        W  362   0.830   5.071   0.455  0.1269 -0.0426 -0.4779
  342W        W  363   1.557   0.273   0.978  0.0948  0.2296  0.3503
  343W        W  364   0.604   3.272   0.681  0.0309  0.0610 -0.0330
  344W        W  365   3.700   4.765   0.051 -0.1499 -0.0358 -0.0743
  345W        W  366   1.553   0.346   0.483 -0.0316  0.1489 -0.1023
  346W        W  367   2.379   1.834   1.586 -0.2027 -0.0025  0.0760
  347W        W  368   2.312   5.512   1.451 -0.3175 -0.1190  0.1879
  348W        W  369   0.289   1.289   0.269 -0.1852  0.1216 -0.2546
  349W        W  370   4.229   0.923   1.520 -0.0410 -0.3069  0.1318
  350W        W  371   4.142   3.907   0.654 -0.1044 -0.1543  0.0696
  351W        W  372   3.946   3.142   1.070 -0.1279 -0.0347  0.0032
  352W        W  373   1.298   3.836   0.763  0.0320 -0.0599 -0.3372
  353W        W  374   4.773   3.998   1.896 -0.0644  0.3532 -0.0826
  354W        W  375   3.700   1.824   1.902 -0.0593  0.5800 -0.1113
  355W        W  376   4.372   3.186   1.712  0.3346 -0.1714 -0.0781
  356W        W  377   5.650   2.575   0.575  0.1346  0.0623  0.3343
  357W        W  378   5.497   1.549   0.689 -0.2830 -0.1863 -0.1103
  358W        W  379   0.680   5.900   1.739 -0.1607 -0.0550  0.3852
  359W        W  380   2.665   1.076   1.287  0.1883  0.1337  0.0894
  360W        W  381   5.068   2.666   0.155 -0.0846  0.4451 -0.0996
  361W        W  382   3.702   4.281   0.043  0.0645  0.1798 -0.2544
  362W        W  383   0.737   0.331   2.125  0.0182 -0.1419 -0.0044
  363W        W  384   4.028   2.558   0.811 -0.1880 -0.0744 -0.3307
  364W        W  385   0.588   4.720   1.189 -0.3585  0.2233 -0.0489
  365W        W  386   1.126   5.718   2.028 -0.1216 -0.4165 -0.0943
  366W        W  387   0.988   3.039   0.423 -0.0934 -0.2954  0.0850
  367W        W  388   1.179   0.977   1.321  0.0467 -0.0080 -0.1120
  368W        W  389   5.626   2.723   1.671  0.1533 -0.1335 -0.1610
  369W        W  390   1.413   3.365   0.249  0.0813  0.3239  0.2272
  370W        W  391   1.282   0.479   1.320 -0.0085 -0.0972 -0.0007
  371W        W  392   4.633   1.164   1.225 -0.1548 -0.0792 -0.0089
  372W        W  393   3.424   0.045   0.698 -0.0123 -0.0639  0.0977
  373W        W  394   5.679   0.195   0.224  0.0310 -0.0488 -0.0478
  374W        W  395   1.105   2.173   1.655 -0.0694 -0.2320  0.1301
  375W        W  396   2.005   4.228   1.937  0.0487 -0.1785  0.2006
  376W        W  397   5.664   4.140   2.102  0.1096  0.2540  0.0606
  377W        W  398   2.875   5.179   0.106  0.0340 -0.0597  0.1971
  378W        W  399   4.702   2.273   0.899  0.2853  0.0494  0.1917
  379W        W  400   4.109   3.642   1.969 -0.3709  0.1621  0.2837
  380W        W  401   0.036   1.286   0.748  0.1108  0.0856 -0.1024
  381W        W  402   5.462   4.039   0.264  0.1671 -0.1218 -0.0247
  382W        W  403   0.489   3.759   0.712  0.0919  0.2057  0.2023
  383W        W  404   2.823   4.215   1.553 -0.1982  0.0873  0.1860
  384W        W  405   1.981   5.859   1.648 -0.1455 -0.0141 -0.1290
  385W        W  406   2.536   5.497   0.586 -0.2763 -0.0997 -0.1098
  386W        W  407   0.881   2.739   1.788  0.1423 -0.0668  0.3089
  387W        W  408   1.068   4.603   0.239  0.1022  0.1471  0.2775
  388W        W  409   3.600   0.828   0.642  0.1713  0.1428 -0.1932
  389W        W  410   2.583   3.419   1.719 -0.0633  0.0134  0.1230
  390W        W  411   0.313   5.744   0.882  0.0726  0.0824 -0.0557
  391W        W  412   0.581   2.411   2.150  0.1329 -0.0483 -0.0261
  392W        W  413   0.709   5.430   1.836  0.1002  0.3385 -0.0271
  393W        W  414   3.505   2.572   0.718 -0.2761 -0.0353 -0.2474
  394W        W  415   4.120   1.324   1.133 -0.0853  0.2481 -0.1489
  395W        W  416   0.845   4.142   0.658 -0.0358  0.0124  0.0781
  396W        W  417   2.655   0.762   1.822 -0.3975  0.2469  0.1010
  397W        W  418   4.870   3.636   0.912 -0.1920 -0.0233 -0.0983
  398W        W  419   1.263   1.799   1.341  0.0879  0.0015  0.3499
  399W        W  420   4.280   2.338   0.496 -0.0358 -0.0177  0.0252
  400W        W  421   3.892   1.829   0.701 -0.0352 -0.3096 -0.0262
  401W        W  422   5.079   3.331   0.078 -0.2888 -0.1339 -0.0992
  402W        W  423   0.911   5.296   2.266  0.2363 -0.0899  0.2922
  403W        W  424   1.728   1.191   1.938 -0.1721 -0.1706 -0.0831
  404W        W  425   2.578   3.268   1.181  0.3045 -0.1400 -0.2004
  405W        W  426   5.600   1.824   1.313 -0.0392 -0.2056 -0.0264
  406W        W  427   4.807   4.747   0.234 -0.0609 -0.0842 -0.1438
  407W        W  428   0.838   1.501   0.269 -0.1628 -0.2503 -0.0370
  408W        W  429   5.110   1.498   1.083  0.1414 -0.0996 -0.1116
  409W        W  430   5.240   4.839   1.674 -0.0449  0.0548  0.0342
  410W        W  431   2.374   2.227   2.113  0.2145 -0.0322 -0.1486
  411W        W  432   4.524   1.214   1.802 -0.0504 -0.0069 -0.1187
  412W        W  433   3.431   0.167   1.926  0.0475 -0.2126  0.1979
  413W        W  434   5.376   0.077   1.570 -0.0338  0.0291  0.0931
  414W        W  435   3.871   4.760   0.747  0.0909  0.0580  0.0301
  415W        W  436   4.868   5.298   1.684  0.0023  0.3266  0.0652
  416W        W  437   5.122   4.611   1.152  0.0420 -0.0003  0.0031
  417W        W  438   4.320   0.215   0.756  0.3203 -0.1169 -0.4456
  418W        W  439   1.375   5.175   1.280  0.3134 -0.3401 -0.1466
  419W        W  440   5.302   1.413   1.529  0.0342  0.0493  0.1640
  420W        W  441   2.007   4.036   1.473  0.0617 -0.0079  0.2407
  421W        W  442   1.792   2.625   2.021  0.0424  0.1488 -0.2653
  422W        W  443   1.641   2.782   1.146 -0.1058 -0.0931 -0.1352
  423W        W  444   4.003   3.934   0.144  0.1077 -0.3169 -0.1412
  424W        W  445   3.144   5.505   0.384 -0.3591 -0.1472 -0.0531
  425W        W  446   0.896   1.370   1.992 -0.0019 -0.0743  0.0442
  426W        W  447   4.583   1.757   1.047  0.3594  0.0063 -0.1430
  427W        W  448   4.785   4.720   1.557 -0.0002  0.2771  0.0438
  428W        W  449   5.074   2.945   1.550  0.2331  0.0828 -0.1624
  429W        W  450   1.014   0.136   0.806  0.4787  0.2219  0.2188
  430W        W  451   2.430   5.412   0.092  0.2002  0.1920 -0.2099
  431W        W  452   1.946   5.482   0.192  0.0100 -0.1091 -0.3849
  432W        W  453   5.873   2.868   2.090  0.1186 -0.0774  0.2085
  433W        W  454   3.749   0.573   1.924  0.0594 -0.0356 -0.1064
  434W        W  455   0.441   0.934   0.698 -0.0143 -0.0275  0.2839
  435W        W  456   2.928   5.909   0.640  0.0348  0.0948  0.0920
  436W        W  457   1.338   0.815   1.786 -0.1110  0.0155  0.0856
  437W        W  458   4.919   0.361   1.708  0.0430 -0.3907 -0.0583
  438W        W  459   3.517   3.116   1.634 -0.0334 -0.3267  0.0749
  439W        W  460   0.704   3.149   1.295  0.1767  0.0320 -0.0131
  440W        W  461   2.552   2.167   0.310  0.0559  0.2313  0.1637
  441W        W  462   4.393   4.586   2.152 -0.0192  0.1518 -0.0430
  442W        W  463   3.954   2.835   1.519  0.0860 -0.0530 -0.0304
  443W        W  464   4.013   1.784   0.197  0.1586 -0.1573  0.2150
  444W        W  465   2.526   0.441   0.466  0.0349  0.3233 -0.0263
  445W        W  466   5.813   5.271   2.124 -0.1635 -0.2082  0.1811
  446W        W  467   0.490   1.589   0.826  0.0642  0.2091  0.1298
  447W        W  468   1.851   5.897   0.678  0.0067  0.0228  0.2724
  448W        W  469   4.920   3.807   1.374  0.5042 -0.0814 -0.0094
  449W        W  470   2.018   3.629   1.022  0.0107 -0.2932  0.0996
  450W        W  471   4.273   3.045   0.007 -0.0218  0.0044  0.1709
  451W        W  472   4.086   5.559   1.711  0.1552  0.1180 -0.2921
  452W        W  473   1.713   4.483   1.058 -0.0329 -0.4129 -0.0644
  453W        W  474   1.635   3.057   1.606  0.1654  0.4718  0.1419
  454W        W  475   1.738   5.389   1.508  0.2834 -0.0040 -0.1646
  455W        W  476   3.553   2.707   1.208 -0.2088  0.1999 -0.1292
  456W        W  477   1.947   5.918   1.179 -0.1585 -0.1013  0.1094
  457W        W  478   5.527   5.089   1.304  0.0365 -0.1947 -0.0092
  458W        W  479   5.066   3.377   1.771 -0.0543  0.1170  0.4929
  459W        W  480   2.691   5.306   1.900 -0.0434  0.2180 -0.1392
  460W        W  481   1.668   2.071   1.227 -0.1163 -0.2969 -0.0061
  461W        W  482   0.437   0.288   1.463 -0.0420 -0.2558 -0.3235
  462W        W  483   1.322   3.343   0.744  0.0073  0.0331  0.1834
  463W        W  484   2.591   1.065   2.226 -0.0174 -0.1077  0.1625
  464W        W  485   0.640   0.658   1.159  0.0665 -0.1910  0.1680
  465W        W  486   2.825   3.882   2.184  0.0406  0.0419  0.2239
  466W        W  487   0.808   5.612   0.849  0.2237  0.2482 -0.1137
  467W        W  488   4.583   2.010   0.130 -0.1563 -0.3485 -0.0406
  468W        W  489   3.779   0.286   0.350 -0.3479  0.0483 -0.1488
  469W        W  490   0.001   0.737   0.686  0.0021 -0.1032 -0.0075
  470W        W  491   1.936   0.821   0.519 -0.2424 -0.3589 -0.0232
  471W        W  492   2.960   3.891   0.548 -0.0019  0.0594 -0.2202
  472W        W  493   0.023   1.709   0.503 -0.0964 -0.1900  0.0078
  473W        W  494   0.235   3.358   0.958  0.2291  0.2451 -0.3517
  474W        W  495   1.234   1.739   1.899  0.0573 -0.2659 -0.0891
  475W        W  496   1.255   2.749   1.456  0.0047 -0.2294  0.0768
  476W        W  497   1.090   0.708   0.813  0.2390 -0.0889 -0.2154
  477W        W  498   3.033   3.700   1.394  0.1764 -0.2632 -0.1953
  478W        W  499   5.512   5.580   0.150 -0.0030 -0.0896 -0.0348
  479W        W  500   2.662   1.595   1.238  0.0553 -0.0902 -0.0289
  480W        W  501   5.692   2.227   0.943  0.1451  0.0703 -0.2048
  481W        W  502   2.049   0.863   1.165  0.1504 -0.1109 -0.1695
  482W        W  503   1.591   4.562   1.999  0.0261 -0.1525  0.1394
  483W        W  504   4.009   2.316   1.651 -0.1728  0.0496 -0.0757
  484W        W  505   1.601   4.867   1.603 -0.0630 -0.1204  0.1975
  485W        W  506   3.040   1.172   2.019 -0.2983  0.1334  0.1340
  486W        W  507   3.176   4.721   2.270  0.3517  0.1024 -0.0131
  487W        W  508   5.814   1.374   1.416 -0.1087 -0.1447 -0.0008
  488W        W  509   0.648   3.224   1.784  0.1102  0.3835 -0.1474
  489W        W  510   5.043   0.653   0.739 -0.1610 -0.1252 -0.2080
  490W        W  511   4.673   1.499   0.253  0.0644  0.1505 -0.2621
  491W        W  512   2.917   3.488   0.912 -0.0307  0.0560 -0.1712
  492W        W  513   5.576   0.462   2.056  0.1445 -0.1074  0.0223
  493W        W  514   2.995   2.291   0.666 -0.0241  0.1710 -0.1890
  494W        W  515   1.919   2.935   0.195  0.0360 -0.1619 -0.1224
  495W        W  516   5.270   2.864   0.617 -0.2523  0.2043  0.1301
  496W        W  517   5.846   5.618   0.618  0.0208 -0.0127  0.4286
  497W        W  518   0.598   0.863   0.145 -0.0978  0.0519  0.0113
  498W        W  519   3.041   4.902   0.512 -0.1844  0.3330 -0.1733
  499W        W  520   5.886   4.450   0.188 -0.1207  0.6953 -0.3017
  500W        W  521   1.254   4.970   2.265  0.1008  0.1116 -0.1789
  501W        W  522   5.018   5.095   1.292  0.1567 -0.1503  0.0081
  502W        W  523   2.432   2.384   1.503  0.2984 -0.0444 -0.1950
  503W        W  524   1.282   1.889   0.132 -0.1641  0.1859 -0.0793
  504W        W  525   1.411   5.787   0.555  0.2687  0.0516  0.1773
  505W        W  526   3.009   1.963   0.210 -0.1166  0.0401 -0.1801
  506W        W  527   3.921   3.459   0.188 -0.1745 -0.0427 -0.3257
  507W        W  528   2.445   0.476   2.259  0.1642  0.0935 -0.0507
  508W        W  529   4.931   5.759   1.784 -0.1163 -0.0098  0.2588
  509W        W  530   2.821   0.975   0.424 -0.1647 -0.0018 -0.1341
  510W        W  531   2.293   0.382   1.773  0.2286  0.2256  0.1068
  511W        W  532   3.205   3.506   0.365 -0.0641  0.0827  0.1451
  512W        W  533   0.243   3.434   0.405 -0.3974 -0.1525 -0.0481
  513W        W  534   2.115   3.373   1.473  0.0862 -0.0234 -0.0527
  514W        W  535   4.894   2.367   1.384 -0.4767 -0.2133  0.2741
  515W        W  536   4.440   5.081   1.489  0.0394 -0.0194 -0.2820
  516W        W  537   0.170   3.342   1.546 -0.1521  0.0352  0.0056
  517W        W  538   1.806   0.423   1.955  0.3504  0.0657 -0.2274
  518W        W  539   5.901   4.588   0.707 -0.1232 -0.1181 -0.0767
  519W        W  540   3.355   4.508   1.812  0.0030 -0.0849 -0.3724
  520W        W  541   3.482   5.591   1.047  0.2318 -0.1294  0.1152
  521W        W  542   3.677   5.330   1.557  0.1294 -0.2091 -0.2144
  522W        W  543   3.590   1.550   1.152 -0.0055  0.0484 -0.2423
  523W        W  544   0.358   5.095   1.727  0.0811 -0.2838  0.0069
  524W        W  545   1.801   3.316   0.601 -0.2724 -0.2499 -0.0154
  525W        W  546   5.474   1.014   0.784 -0.0876 -0.0114 -0.0021
  526W        W  547   5.352   4.882   0.799  0.1424 -0.0641 -0.0744
  527W        W  548   1.957   3.457   0.158 -0.4071  0.1693 -0.2576
  528W        W  549   2.960   1.469   0.303 -0.0049 -0.1507  0.0238
  529W        W  550   2.297   2.714   1.143 -0.1427  0.0400 -0.0163
  530W        W  551   4.491   4.401   0.423 -0.0144  0.2424 -0.0644
  531W        W  552   5.062   3.836   2.263  0.0684 -0.0725 -0.2532
  532W        W  553   2.944   5.336   0.827  0.0757 -0.1594  0.0226
  533W        W  554   2.450   4.480   1.761  0.1050  0.0819 -0.1619
  534W        W  555   0.124   0.392   1.137 -0.2870 -0.0744  0.0536
  535W        W  556   3.060   3.455   1.980 -0.1558 -0.0941  0.0758
  536W        W  557   3.501   2.000   0.065  0.3740 -0.1972 -0.2497
  537W        W  558   0.507   0.348   0.802  0.1301 -0.1326 -0.0287
  538W        W  559   1.897   1.224   0.157  0.3019  0.3008 -0.0905
  539W        W  560   2.347   1.765   0.884  0.1356 -0.1240  0.1482
  540W        W  561   5.888   4.180   0.947  0.4146  0.1841 -0.3547
  541W        W  562   5.146   0.353   0.299  0.2467 -0.1911  0.2807
  542W        W  563   4.050   5.644   0.302 -0.2819  0.1319 -0.0973
  543W        W  564   1.427   4.667   0.629 -0.0574 -0.0874 -0.1540
  544W        W  565   3.189   0.601   1.901 -0.0506 -0.2435 -0.4266
  545W        W  566   2.952   4.822   1.746 -0.1690 -0.0209 -0.2368
  546W        W  567   1.126   3.862   1.280 -0.0288  0.0501  0.1514
  547W        W  568   3.709   3.470   0.626  0.0951  0.0942 -0.3413
  548W        W  569   0.135   4.123   0.485 -0.0328 -0.0031  0.1772
  549W        W  570   4.713   3.216   0.768  0.0485 -0.0721  0.3305
  550W        W  571   1.314   0.272   1.863  0.0651  0.1804  0.1460
  551W        W  572   3.552   3.200   2.266 -0.1849 -0.0226 -0.2338
  552W        W  573   3.418   3.416   1.112 -0.0349 -0.1251  0.0694
  553W        W  574   5.194   5.260   2.198 -0.1595  0.0154  0.0822
  554W        W  575   1.128   0.615   0.054  0.1625  0.2177 -0.1073
  555W        W  576   0.809   0.873   1.966 -0.1513  0.0319 -0.0581
  556W        W  577   3.448   4.621   0.468  0.1684  0.0037 -0.2132
  557W        W  578   4.292   0.163   0.285  0.0013  0.2546  0.1297
  558W        W  579   5.597   0.038   0.901 -0.1802  0.2626  0.0955
  559W        W  580   5.033   4.131   1.019 -0.3467 -0.2750 -0.1820
  560W        W  581   5.244   3.921   1.772  0.0035 -0.2682  0.2510
  561W        W  582   1.439   5.540   0.150 -0.0013 -0.0175  0.1173
  562W        W  583   5.814   1.404   2.081 -0.0869 -0.1713 -0.1387
  563W        W  584   2.351   0.798   0.812 -0.0654  0.2712 -0.0028
  564W        W  585   4.113   3.908   1.533 -0.2168  0.1316  0.0020
  565W        W  586   5.199   3.199   1.056  0.2564 -0.0641  0.1699
  566W        W  587   2.773   1.962   2.050  0.0254 -0.2009  0.2915
  567W        W  588   4.413   1.553   1.491  0.1593 -0.2354 -0.0184
  568W        W  589   1.726   5.008   0.345 -0.0047  0.0134  0.2848
  569W        W  590   4.911   4.206   0.255 -0.1971 -0.4541  0.1748
  570W        W  591   1.404   4.017   2.075 -0.0507 -0.1800  0.2565
  571W        W  592   1.576   0.787   0.963 -0.0557 -0.1762 -0.1833
  572W        W  593   1.190   3.083   1.838 -0.1191  0.3483  0.4646
  573W        W  594   1.423   5.610   1.064 -0.0361 -0.3132 -0.2921
  574W        W  595   4.688   3.282   1.317 -0.1266 -0.1437 -0.0236
  575W        W  596   3.741   1.276   0.683  0.2876 -0.3533 -0.1206
  576W        W  597   4.902   0.657   1.226  0.1268 -0.0281  0.0986
  577W        W  598   0.450   4.818   0.689  0.4380 -0.0125  0.0171
  578W        W  599   0.511   2.004   0.155  0.0328  0.1931  0.3119
  579W        W  600   0.824   0.079   1.242 -0.0464 -0.1112 -0.0398
  580W        W  601   3.142   2.311   1.191  0.1006 -0.1311  0.1276
  581W        W  602   3.098   0.155   1.143  0.1628 -0.0140  0.1742
  582W        W  603   4.658   2.737   1.605 -0.0829 -0.1601 -0.3279
  583W        W  604   2.808   5.190   1.418 -0.0671  0.2803 -0.2716
  584W        W  605   1.585   1.648   0.887 -0.2639  0.1902  0.1246
  585W        W  606   1.677   5.246   0.817 -0.0509  0.0326  0.3853
  586W        W  607   2.002   3.103   1.930  0.1786 -0.2816  0.0251
  587W        W  608   0.696   3.286   0.067  0.1892 -0.2031 -0.2309
  588W        W  609   1.916   2.040   0.785  0.0284  0.1719  0.0322
  589W        W  610   0.639   4.825   0.058  0.1712 -0.2807 -0.0847
  590W        W  611   0.601   2.296   1.608 -0.2487 -0.2200  0.2392
  591W        W  612   4.819   2.655   0.585 -0.3013 -0.1953 -0.1671
  592W        W  613   0.948   4.460   2.074  0.1307 -0.1025  0.0008
  593W        W  614   1.528   0.066   2.264  0.1959  0.0801  0.1475
  594W        W  615   4.103   2.320   0.005 -0.1666  0.0420 -0.0853
  595W        W  616   1.534   2.388   0.214 -0.1464  0.0283  0.1982
  596W        W  617   2.471   0.107   0.801 -0.0044 -0.2733 -0.0035
  597W        W  618   0.942   2.766   0.006  0.1443  0.1166 -0.3101
  598W        W  619   3.195   1.479   0.802 -0.0979 -0.2627 -0.0571
  599W        W  620   5.093   1.869   0.174 -0.0606 -0.0550 -0.1964
  600W        W  621   1.995   1.607   0.500  0.1274  0.1431  0.0872
  601W        W  622   4.966   0.159   0.720  0.2079  0.0581 -0.1259
  602W        W  623   1.667   1.174   1.321  0.1675 -0.1189  0.2107
  603W        W  624   0.646   3.697   1.426 -0.1440 -0.1695  0.2235
  604W        W  625   3.872   0.143   1.591  0.3104  0.2936  0.2583
  605W        W  626   0.062   4.911   1.217 -0.1219  0.2322 -0.2728
  606W        W  627   4.081   4.605   0.245  0.0597  0.2715  0.1173
  607W        W  628   0.107   3.739   1.190  0.1047  0.0135 -0.1453
  608W        W  629   2.287   2.334   0.772 -0.3118  0.1029  0.0040
  609W        W  630   3.588   3.561   1.922  0.1599  0.0942  0.1462
  610W        W  631   0.913   4.670   0.776  0.0992  0.7701  0.0530
  611W        W  632   4.732   2.959   2.053 -0.1452 -0.0439  0.0441
  612W        W  633   2.960   1.646   1.701  0.2815  0.2468 -0.2879
  613W        W  634   2.869   0.589   1.397 -0.2179  0.0271  0.2261
  614W        W  635   3.431   0.564   1.025 -0.0529 -0.0459 -0.0589
  615W        W  636   4.318   3.470   1.025  0.1385 -0.3379  0.1560
  616W        W  637   3.241   2.065   1.884 -0.1827  0.0746  0.0975
  617W        W  638   1.303   1.304   1.657  0.1135  0.0152  0.0667
  618W        W  639   3.690   4.091   1.880 -0.0544 -0.0807 -0.0250
  619W        W  640   3.254   0.966   1.543  0.2649 -0.0117  0.2463
  620W        W  641   3.247   2.876   2.029 -0.0055 -0.0855 -0.4071
  621W        W  642   4.597   4.911   0.710  0.2825 -0.1060 -0.1172
  622W        W  643   1.477   2.893   0.630  0.2130 -0.1601  0.1192
  623W        W  644   5.733   4.875   1.672 -0.0340 -0.3262 -0.0091
  624W        W  645   5.154   4.347   2.108 -0.2853  0.3135 -0.1542
  625W        W  646   0.387   1.585   2.168 -0.1221  0.0017  0.3881
  626W        W  647   0.127   2.242   0.601 -0.0367 -0.0549  0.1692
  627W        W  648   2.307   4.971   1.570 -0.1131 -0.4387  0.0181
  628W        W  649   4.738   3.587   0.393  0.0080 -0.1143  0.4665
  629W        W  650   2.527   3.799   1.320 -0.2842 -0.2531  0.0124
  630W        W  651   3.958   3.769   1.118  0.1382  0.4943  0.3076
  631W        W  652   1.305   5.236   1.810 -0.3104 -0.0788  0.1488
  632W        W  653   4.762   5.550   2.205 -0.2297 -0.3182  0.0906
  633W        W  654   5.172   1.363   0.252 -0.1762  0.2230 -0.1005
  634W        W  655   3.584   3.892   1.420 -0.2062  0.0676 -0.0502
  635W        W  656   3.524   0.985   2.105 -0.2225 -0.0316 -0.0274
  636W        W  657   3.377   0.413   1.511  0.0156  0.0724  0.1430
  637W        W  658   0.519   1.931   1.255 -0.1301 -0.1215  0.2417
  638W        W  659   3.500   1.634   0.444 -0.1665 -0.1553  0.2494
  639W        W  660   0.278   5.627   1.930 -0.0810  0.0523 -0.1595
  640W        W  661   1.808   2.557   0.616  0.2477 -0.1842 -0.1295
  641W        W  662   3.707   2.389   2.014  0.0659 -0.1406 -0.1066
  642W        W  663   2.639   5.660   1.062  0.0771  0.0586 -0.1662
  643W        W  664   2.090   3.611   1.914 -0.0373 -0.0090 -0.0801
  644W        W  665   5.488   3.685   2.133  0.1183  0.1098  0.2299
  645W        W  666   0.136   4.987   0.333  0.1399  0.1739 -0.1121
  646W        W  667   5.327   5.774   0.556  0.2284 -0.1724 -0.2199
  647W        W  668   2.132   0.873   2.132 -0.0281  0.4104 -0.0025
  648W        W  669   0.354   5.626   1.408 -0.4003  0.0238 -0.0432
  649W        W  670   5.107   2.012   1.043 -0.1767  0.1352 -0.1860
  650W        W  671   4.357   5.033   0.156  0.0938 -0.0246 -0.4937
  651W        W  672   0.356   1.100   1.957 -0.1933 -0.1972  0.0281
  652ION     NA  673   4.638   4.940   1.136 -0.1199  0.2138  0.0055
  653ION     NA  674   1.766   5.855   0.290  0.3270 -0.1741  0.2984
  654ION     NA  675   4.933   5.641   0.758  0.1799  0.2282 -0.4623
  655ION     NA  676   4.437   5.414   0.345 -0.1144  0.2141  0.0727
  656ION     NA  677   4.700   0.442   0.917 -0.0603  0.4021  0.4835
  657ION     NA  678   2.308   0.813   0.269  0.0665  0.2412 -0.4331
  658ION     NA  679   4.457   5.363   1.852  0.0182 -0.7178  0.0742
  659ION     CL  680   4.599   0.047   0.530 -0.4102  0.3642  0.4337
  660ION     CL  681   4.015   5.475   0.822 -0.0461 -0.1699  0.1097
  661ION     CL  682   5.184   5.768   0.999 -0.0215 -0.0283  0.1524
  662ION     CL  683   5.793   5.287   0.291 -0.3482 -0.0293 -0.1643
  663ION     CL  684   4.697   5.354   1.269  0.2155 -0.2848 -0.0744
  664ION     CL  685   5.050   5.353   0.563  0.0416 -0.0264 -0.0715
  665ION     CL  686   4.052   0.173   1.143  0.1081  0.3883  0.0943
   5.92152   5.92152   2.27228
