Generated
205
   17ASN      N    1   6.287   0.563  25.325
   17ASN     HN    2   6.370   0.563  25.380
   17ASN     CA    3   6.272   0.674  25.235
   17ASN     HA    4   6.174   0.666  25.190
   17ASN     CB    5   6.286   0.813  25.303
   17ASN    HB1    6   6.311   0.889  25.226
   17ASN    HB2    7   6.367   0.809  25.379
   17ASN     CG    8   6.154   0.851  25.371
   17ASN    OD1    9   6.048   0.792  25.346
   17ASN    ND2   10   6.159   0.956  25.456
   17ASN   HD22   11   6.246   0.995  25.486
   17ASN      C   12   6.383   0.654  25.137
   17ASN      O   13   6.501   0.661  25.171
 1274BGLCN   C1   14   6.041   1.019  25.508
 1274BGLCN   H1   15   5.980   0.943  25.561
 1274BGLCN   C5   16   5.836   1.122  25.438
 1274BGLCN   H5   17   5.779   1.039  25.485
 1274BGLCN   O5   18   5.965   1.075  25.399
 1274BGLCN   C2   19   6.058   1.120  25.618
 1274BGLCN   H2   20   6.117   1.207  25.581
 1274BGLCN    N   21   6.129   1.060  25.729
 1274BGLCN   HN   22   6.107   0.965  25.746
 1274BGLCN    C   23   6.221   1.124  25.806
 1274BGLCN    O   24   6.254   1.241  25.789
 1274BGLCN   CT   25   6.280   1.042  25.919
 1274BGLCN  HT1   26   6.332   0.953  25.878
 1274BGLCN  HT2   27   6.199   1.008  25.988
 1274BGLCN  HT3   28   6.354   1.104  25.975
 1274BGLCN   C3   29   5.928   1.185  25.659
 1274BGLCN   H3   30   5.861   1.109  25.704
 1274BGLCN   O3   31   5.950   1.288  25.753
 1274BGLCN  HO3   32   6.007   1.354  25.714
 1274BGLCN   C4   33   5.854   1.236  25.537
 1274BGLCN   H4   34   5.912   1.318  25.490
 1274BGLCN   O4   35   5.726   1.293  25.567
 1274BGLCN   C6   36   5.763   1.159  25.312
 1274BGLCN  H61   37   5.659   1.189  25.334
 1274BGLCN  H62   38   5.762   1.073  25.241
 1274BGLCN   O6   39   5.834   1.268  25.254
 1275AFUC    C1   40   5.817   1.275  25.115
 1275AFUC    H1   41   5.708   1.269  25.093
 1275AFUC    C5   42   6.027   1.174  25.068
 1275AFUC    H5   43   6.046   1.169  25.177
 1275AFUC    O5   44   5.885   1.170  25.045
 1275AFUC    C2   45   5.867   1.409  25.065
 1275AFUC    H2   46   5.847   1.418  24.956
 1275AFUC    O2   47   5.801   1.515  25.133
 1275AFUC   HO2   48   5.819   1.507  25.227
 1275AFUC    C3   49   6.018   1.420  25.081
 1275AFUC    H3   50   6.045   1.414  25.188
 1275AFUC    O3   51   6.067   1.543  25.029
 1275AFUC   HO3   52   6.045   1.548  24.935
 1275AFUC    C4   53   6.084   1.302  25.011
 1275AFUC    H4   54   6.194   1.305  25.029
 1275AFUC    O4   55   6.064   1.305  24.871
 1275AFUC   HO4   56   5.969   1.301  24.853
 1275AFUC    C6   57   6.084   1.046  25.002
 1275AFUC   H61   58   6.035   0.956  25.044
 1275AFUC   H62   59   6.193   1.040  25.020
 1275AFUC   H63   60   6.064   1.049  24.892
 1276BGLCN   C1   61   5.721   1.432  25.584
 1276BGLCN   H1   62   5.803   1.479  25.526
 1276BGLCN   C5   63   5.745   1.610  25.741
 1276BGLCN   H5   64   5.828   1.650  25.678
 1276BGLCN   O5   65   5.734   1.468  25.722
 1276BGLCN   C2   66   5.588   1.485  25.535
 1276BGLCN   H2   67   5.506   1.442  25.596
 1276BGLCN    N   68   5.568   1.447  25.397
 1276BGLCN   HN   69   5.651   1.441  25.343
 1276BGLCN    C   70   5.447   1.420  25.341
 1276BGLCN    O   71   5.341   1.425  25.404
 1276BGLCN   CT   72   5.449   1.385  25.194
 1276BGLCN  HT1   73   5.478   1.279  25.181
 1276BGLCN  HT2   74   5.522   1.449  25.140
 1276BGLCN  HT3   75   5.347   1.400  25.151
 1276BGLCN   C3   76   5.581   1.634  25.556
 1276BGLCN   H3   77   5.660   1.684  25.496
 1276BGLCN   O3   78   5.455   1.685  25.517
 1276BGLCN  HO3   79   5.467   1.738  25.437
 1276BGLCN   C4   80   5.614   1.673  25.698
 1276BGLCN   H4   81   5.532   1.638  25.765
 1276BGLCN   O4   82   5.621   1.814  25.718
 1276BGLCN   C6   83   5.779   1.638  25.885
 1276BGLCN  H61   84   5.700   1.594  25.951
 1276BGLCN  H62   85   5.784   1.747  25.902
 1276BGLCN   O6   86   5.904   1.580  25.921
 1276BGLCN  HO6   87   5.895   1.485  25.923
 1277BMAN    C1   88   5.501   1.879  25.754
 1277BMAN    H1   89   5.431   1.805  25.797
 1277BMAN    C5   90   5.308   1.990  25.672
 1277BMAN    H5   91   5.245   1.907  25.710
 1277BMAN    O5   92   5.438   1.941  25.640
 1277BMAN    C2   93   5.529   1.986  25.856
 1277BMAN    H2   94   5.575   1.940  25.946
 1277BMAN    O2   95   5.618   2.085  25.806
 1277BMAN   HO2   96   5.579   2.126  25.728
 1277BMAN    C3   97   5.398   2.049  25.897
 1277BMAN    H3   98   5.333   1.971  25.943
 1277BMAN    O3   99   5.416   2.155  25.991
 1277BMAN    C4  100   5.320   2.099  25.778
 1277BMAN    H4  101   5.372   2.187  25.735
 1277BMAN    O4  102   5.192   2.145  25.817
 1277BMAN   HO4  103   5.142   2.071  25.853
 1277BMAN    C6  104   5.239   2.037  25.546
 1277BMAN   H61  105   5.297   2.120  25.500
 1277BMAN   H62  106   5.136   2.072  25.569
 1277BMAN    O6  107   5.233   1.927  25.456
 1278AMAN    C1  108   5.164   1.962  25.339
 1278AMAN    H1  109   5.065   2.004  25.368
 1278AMAN    C5  110   5.359   2.012  25.210
 1278AMAN    H5  111   5.425   1.989  25.296
 1278AMAN    O5  112   5.232   2.059  25.259
 1278AMAN    C2  113   5.137   1.840  25.256
 1278AMAN    H2  114   5.084   1.763  25.317
 1278AMAN    O2  115   5.056   1.878  25.145
 1278AMAN    C3  116   5.266   1.780  25.205
 1278AMAN    H3  117   5.329   1.748  25.291
 1278AMAN    O3  118   5.239   1.667  25.124
 1278AMAN   HO3  119   5.281   1.590  25.163
 1278AMAN    C4  120   5.340   1.885  25.126
 1278AMAN    H4  121   5.282   1.910  25.035
 1278AMAN    O4  122   5.469   1.838  25.090
 1278AMAN   HO4  123   5.518   1.818  25.170
 1278AMAN    C6  124   5.435   2.122  25.140
 1278AMAN   H61  125   5.382   2.152  25.048
 1278AMAN   H62  126   5.537   2.086  25.114
 1278AMAN    O6  127   5.449   2.237  25.224
 1278AMAN   HO6  128   5.367   2.287  25.221
 1279BGLCN   C1  129   4.918   1.878  25.170
 1279BGLCN   H1  130   4.902   1.886  25.280
 1279BGLCN   C5  131   4.718   1.751  25.163
 1279BGLCN   H5  132   4.711   1.758  25.273
 1279BGLCN   O5  133   4.855   1.759  25.122
 1279BGLCN   C2  134   4.855   1.997  25.103
 1279BGLCN   H2  135   4.866   1.989  24.993
 1279BGLCN    N  136   4.921   2.117  25.148
 1279BGLCN   HN  137   4.950   2.115  25.243
 1279BGLCN    C  138   4.945   2.227  25.072
 1279BGLCN    O  139   4.910   2.236  24.954
 1279BGLCN   CT  140   5.016   2.342  25.141
 1279BGLCN  HT1  141   5.116   2.307  25.176
 1279BGLCN  HT2  142   4.957   2.376  25.228
 1279BGLCN  HT3  143   5.031   2.425  25.069
 1279BGLCN   C3  144   4.707   1.998  25.130
 1279BGLCN   H3  145   4.689   2.012  25.238
 1279BGLCN   O3  146   4.643   2.105  25.060
 1279BGLCN  HO3  147   4.658   2.093  24.966
 1279BGLCN   C4  148   4.642   1.865  25.098
 1279BGLCN   H4  149   4.641   1.851  24.988
 1279BGLCN   O4  150   4.507   1.863  25.138
 1279BGLCN  HO4  151   4.451   1.853  25.060
 1279BGLCN   C6  152   4.665   1.615  25.123
 1279BGLCN  H61  153   4.673   1.602  25.013
 1279BGLCN  H62  154   4.559   1.606  25.154
 1279BGLCN   O6  155   4.738   1.510  25.186
 1279BGLCN  HO6  156   4.820   1.496  25.137
 1280AMAN    C1  157   5.364   2.129  26.118
 1280AMAN    H1  158   5.261   2.089  26.107
 1280AMAN    C5  159   5.575   2.079  26.218
 1280AMAN    H5  160   5.627   2.093  26.121
 1280AMAN    O5  161   5.441   2.034  26.193
 1280AMAN    C2  162   5.354   2.257  26.197
 1280AMAN    H2  163   5.292   2.330  26.141
 1280AMAN    O2  164   5.293   2.230  26.323
 1280AMAN    C3  165   5.491   2.313  26.221
 1280AMAN    H3  166   5.541   2.335  26.124
 1280AMAN    O3  167   5.482   2.434  26.295
 1280AMAN   HO3  168   5.440   2.416  26.379
 1280AMAN    C4  169   5.574   2.211  26.295
 1280AMAN    H4  170   5.532   2.195  26.396
 1280AMAN    O4  171   5.708   2.255  26.306
 1280AMAN   HO4  172   5.745   2.268  26.218
 1280AMAN    C6  173   5.658   1.970  26.283
 1280AMAN   H61  174   5.617   1.947  26.384
 1280AMAN   H62  175   5.763   2.004  26.292
 1280AMAN    O6  176   5.656   1.850  26.205
 1280AMAN   HO6  177   5.706   1.865  26.125
 1281BGLCN   C1  178   5.153   2.238  26.322
 1281BGLCN   H1  179   5.114   2.184  26.233
 1281BGLCN   C5  180   4.963   2.379  26.300
 1281BGLCN   H5  181   4.935   2.323  26.208
 1281BGLCN   O5  182   5.106   2.373  26.318
 1281BGLCN   C2  183   5.099   2.173  26.447
 1281BGLCN   H2  184   5.130   2.230  26.536
 1281BGLCN    N  185   5.151   2.038  26.458
 1281BGLCN   HN  186   5.163   1.991  26.371
 1281BGLCN    C  187   5.183   1.977  26.574
 1281BGLCN    O  188   5.170   2.030  26.684
 1281BGLCN   CT  189   5.236   1.836  26.562
 1281BGLCN  HT1  190   5.329   1.836  26.501
 1281BGLCN  HT2  191   5.161   1.771  26.513
 1281BGLCN  HT3  192   5.260   1.796  26.663
 1281BGLCN   C3  193   4.948   2.178  26.446
 1281BGLCN   H3  194   4.910   2.120  26.359
 1281BGLCN   O3  195   4.894   2.122  26.564
 1281BGLCN  HO3  196   4.926   2.171  26.640
 1281BGLCN   C4  197   4.897   2.318  26.422
 1281BGLCN   H4  198   4.920   2.381  26.511
 1281BGLCN   O4  199   4.756   2.321  26.409
 1281BGLCN  HO4  200   4.732   2.271  26.331
 1281BGLCN   C6  201   4.925   2.524  26.276
 1281BGLCN  H61  202   4.956   2.585  26.364
 1281BGLCN  H62  203   4.815   2.531  26.263
 1281BGLCN   O6  204   4.989   2.576  26.160
 1281BGLCN  HO6  205   5.079   2.600  26.182
   0.00000   0.00000   0.00000   0.00000   0.00000   0.00000   0.00000   0.00000   0.00000
