[ 1BB ]
   1    2    3    4   12   13
[ 1SC1 ]
   5    6    7    8    9   10   11
[ BG1_1 ]
 178  179  180  181  182
[ BG2_2 ]
 183  184  185  186  187  188  189  190  191  192
[ BG3_3 ]
 193  194  195  196
[ BG4_4 ]
 197  198  201  202  203  204
[ AF1_5 ]
  40   41   42   43   44
[ AF2_6 ]
  45   46   47   48   49   50   51   52
[ AF3_7 ]
  53   54   55   56   57   58   59   60
[ BG1_8 ]
 178  179  180  181  182
[ BG2_9 ]
 183  184  185  186  187  188  189  190  191  192
[ BG3_10 ]
 193  194  195  196
[ BG4_11 ]
 197  198  201  202  203  204
[ BM1_12 ]
  88   89   90   91   92
[ BM2_13 ]
  93   94   95   96   97   98   99
[ BM3_14 ]
 100  101  102  103  104  105  106  107
[ AM1_15 ]
 157  158  159  160  161
[ AM2_16 ]
 162  163  164  165  166  167  168
[ AM3_17 ]
 169  170  171  172  173  174  175  176  177
[ BG1_18 ]
 178  179  180  181  182
[ BG2_19 ]
 183  184  185  186  187  188  189  190  191  192
[ BG3_20 ]
 193  194  195  196
[ BG4_21 ]
 197  198  201  202  203  204
[ AM1_22 ]
 157  158  159  160  161
[ AM2_23 ]
 162  163  164  165  166  167  168
[ AM3_24 ]
 169  170  171  172  173  174  175  176  177
[ BG1_25 ]
 178  179  180  181  182
[ BG2_26 ]
 183  184  185  186  187  188  189  190  191  192
[ BG3_27 ]
 193  194  195  196
[ BG4_28 ]
 197  198  201  202  203  204
[ r_1-9 ]
   1    2    3    4    5    6    7    8    9   10   11   12   13   14   15
  16   17   18   19   20   21   22   23   24   25   26   27   28   29   30
  31   32   33   34   35   36   37   38   39   40   41   42   43   44   45
  46   47   48   49   50   51   52   53   54   55   56   57   58   59   60
  61   62   63   64   65   66   67   68   69   70   71   72   73   74   75
  76   77   78   79   80   81   82   83   84   85   86   87   88   89   90
  91   92   93   94   95   96   97   98   99  100  101  102  103  104  105
 106  107  108  109  110  111  112  113  114  115  116  117  118  119  120
 121  122  123  124  125  126  127  128  129  130  131  132  133  134  135
 136  137  138  139  140  141  142  143  144  145  146  147  148  149  150
 151  152  153  154  155  156  157  158  159  160  161  162  163  164  165
 166  167  168  169  170  171  172  173  174  175  176  177  178  179  180
 181  182  183  184  185  186  187  188  189  190  191  192  193  194  195
 196  197  198  199  200  201  202  203  204  205
