;;
;; Generated by CHARMM-GUI FF-Converter
;;
;; Correspondance:
;; jul316@lehigh.edu or wonpil@lehigh.edu
;;
;; The main GROMACS topology file
;;

; Include forcefield parameters
#include "../toppar/forcefield.itp"

#include "../toppar/tip3p.itp"
#include "../toppar/ions.itp"

#include "carb.itp"

[ system ]
; Name
Carbohydrate in water

[ molecules ]
; Compound  #mols
PROA             1
SOL         9897
NA               28
CL               28
