;;;;;; Generated from cg-martini3
; 
; 

[ moleculetype ]
; molname    nrexcl
  MOL         1

[ atoms ]
; nr   type  resnr  residue  atom    cgnr     charge     mass
    1  P2        1  BB    C          1    0.0000   56.0444
    2  SP5       1  SC1   CB         2   -0.1600   57.0524
    3  TP5       2  BG1   C1         3    0.1800   42.0374
    4  TP5       2  BG2   C2         4   -0.0000   71.0794
    5  TP5       2  BG3   C3         5   -0.0000   30.0264
    6  TP5       2  BG4   C4         6   -0.8400   59.0448
    7  TP5       3  AF1   C1         7    0.1800   42.0374
    8  TP5       3  AF2   C3         8   -0.0000   60.0528
    9  TP5       3  AF3   C4         9   -0.0000   45.0614
   10  TP5       4  BG1   C1        10    0.1800   42.0374
   11  TP5       4  BG2   C2        11   -0.0000   71.0794
   12  TP5       4  BG3   C3        12   -0.0000   30.0264
   13  TP5       4  BG4   C4        13   -0.8400   59.0448
   14  TP5       5  BM1   C1        14    0.1800   42.0374
   15  TP5       5  BM2   C3        15   -0.1800   59.0448
   16  TP5       5  BM3   C4        16   -0.1800   60.0528
   17  TP5       6  AM1   C1        17    0.1800   42.0374
   18  TP5       6  AM2   C3        18   -0.1800   59.0448
   19  TP5       6  AM3   C4        19   -0.0000   61.0608
   20  TP5       7  BG1   C1        20    0.1800   42.0374
   21  TP5       7  BG2   C2        21   -0.0000   71.0794
   22  TP5       7  BG3   C3        22   -0.0000   30.0264
   23  TP5       7  BG4   C4        23   -0.8400   59.0448
   24  TP5       8  AM1   C1        24    0.1800   42.0374
   25  TP5       8  AM2   C3        25   -0.1800   59.0448
   26  TP5       8  AM3   C4        26   -0.0000   61.0608
   27  TP5       9  BG1   C1        27    0.1800   42.0374
   28  TP5       9  BG2   C2        28   -0.0000   71.0794
   29  TP5       9  BG3   C3        29   -0.0000   30.0264
   30  TP5       9  BG4   C4        30   -0.8400   59.0448

[ bonds ]
; i    j    funct    length    force_k
    1     2     1    0.297   1264.9     ; 1_C---1_CB dist=2.974
    3     6     1    0.235   1245.9     ; 2_C1---2_C4 dist=2.355
    3     5     1    0.336   1269.4     ; 2_C1---2_C3 dist=3.360
    4     5     1    0.341   1295.7     ; 2_C2---2_C3 dist=3.409
    5     6     1    0.345   1243.0     ; 2_C3---2_C4 dist=3.447
    7     9     1    0.209   1243.0     ; 3_C1---3_C4 dist=2.086
    7     8     1    0.291   1297.4     ; 3_C1---3_C3 dist=2.906
    8     9     1    0.321   1273.0     ; 3_C3---3_C4 dist=3.205
   10    13     1    0.217   1235.9     ; 4_C1---4_C4 dist=2.175
   10    12     1    0.348   1266.3     ; 4_C1---4_C3 dist=3.483
   11    12     1    0.335   1236.1     ; 4_C2---4_C3 dist=3.352
   12    13     1    0.384   1236.0     ; 4_C3---4_C4 dist=3.843
   14    15     1    0.248   1257.3     ; 5_C1---5_C3 dist=2.481
   14    16     1    0.225   1192.6     ; 5_C1---5_C4 dist=2.253
   15    16     1    0.336   1198.3     ; 5_C3---5_C4 dist=3.362
   17    19     1    0.215   1233.1     ; 6_C1---6_C4 dist=2.149
   17    18     1    0.283   1219.6     ; 6_C1---6_C3 dist=2.834
   18    19     1    0.368   1259.4     ; 6_C3---6_C4 dist=3.678
   20    23     1    0.216   1222.8     ; 7_C1---7_C4 dist=2.159
   20    22     1    0.335   1207.6     ; 7_C1---7_C3 dist=3.345
   21    22     1    0.345   1294.0     ; 7_C2---7_C3 dist=3.450
   22    23     1    0.370   1243.2     ; 7_C3---7_C4 dist=3.697
   24    26     1    0.228   1252.0     ; 8_C1---8_C4 dist=2.282
   24    25     1    0.279   1207.3     ; 8_C1---8_C3 dist=2.789
   25    26     1    0.375   1233.7     ; 8_C3---8_C4 dist=3.752
   27    30     1    0.216   1253.3     ; 9_C1---9_C4 dist=2.162
   27    29     1    0.335   1215.5     ; 9_C1---9_C3 dist=3.347
   28    29     1    0.342   1261.3     ; 9_C2---9_C3 dist=3.421
   29    30     1    0.370   1232.0     ; 9_C3---9_C4 dist=3.697
    2     3     1    0.349   1241.2     ; 1_CB---2_C1 dist=3.494
    6     7     1    0.358   1231.9     ; 2_C4---3_C1 dist=3.582
   10     6     1    0.379   1305.6     ; 4_C1---2_C4 dist=3.787
   13    14     1    0.425   1249.6     ; 4_C4---5_C1 dist=4.253
   15    24     1    0.316   1218.3     ; 5_C3---8_C1 dist=3.160
   16    17     1    0.412   1274.7     ; 5_C4---6_C1 dist=4.118
   18    20     1    0.362   1213.4     ; 6_C3---7_C1 dist=3.619
   25    27     1    0.335   1256.3     ; 8_C3---9_C1 dist=3.351

[ angles ]
    6     3     5     2     71.8     22.2     ;  2_C4--2_C1--2_C3  angle = 71.8 degree
    3     6     5     2     67.8     24.7     ;  2_C1--2_C4--2_C3  angle = 67.8 degree
    3     5     4     2     85.8     30.8     ;  2_C1--2_C3--2_C2  angle = 85.8 degree
    3     5     6     2     40.4     33.0     ;  2_C1--2_C3--2_C4  angle = 40.4 degree
    4     5     6     2    126.2     30.7     ;  2_C2--2_C3--2_C4  angle = 126.2 degree
    9     7     8     2     78.0     29.5     ;  3_C4--3_C1--3_C3  angle = 78.0 degree
    7     9     8     2     62.5     28.8     ;  3_C1--3_C4--3_C3  angle = 62.5 degree
    7     8     9     2     39.5     24.1     ;  3_C1--3_C3--3_C4  angle = 39.5 degree
   13    10    12     2     82.0     27.1     ;  4_C4--4_C1--4_C3  angle = 82.0 degree
   10    13    12     2     63.9     28.2     ;  4_C1--4_C4--4_C3  angle = 63.9 degree
   10    12    11     2     84.9     34.2     ;  4_C1--4_C3--4_C2  angle = 84.9 degree
   10    12    13     2     34.1     31.4     ;  4_C1--4_C3--4_C4  angle = 34.1 degree
   11    12    13     2    118.9     22.9     ;  4_C2--4_C3--4_C4  angle = 118.9 degree
   15    14    16     2     90.4     31.3     ;  5_C3--5_C1--5_C4  angle = 90.4 degree
   14    15    16     2     42.1     28.5     ;  5_C1--5_C3--5_C4  angle = 42.1 degree
   14    16    15     2     47.5     27.3     ;  5_C1--5_C4--5_C3  angle = 47.5 degree
   19    17    18     2     94.1     32.4     ;  6_C4--6_C1--6_C3  angle = 94.1 degree
   17    19    18     2     50.2     34.1     ;  6_C1--6_C4--6_C3  angle = 50.2 degree
   17    18    19     2     35.7     33.7     ;  6_C1--6_C3--6_C4  angle = 35.7 degree
   23    20    22     2     81.3     26.6     ;  7_C4--7_C1--7_C3  angle = 81.3 degree
   20    23    22     2     63.4     28.8     ;  7_C1--7_C4--7_C3  angle = 63.4 degree
   20    22    21     2     85.3     31.3     ;  7_C1--7_C3--7_C2  angle = 85.3 degree
   20    22    23     2     35.3     33.9     ;  7_C1--7_C3--7_C4  angle = 35.3 degree
   21    22    23     2    120.3     28.1     ;  7_C2--7_C3--7_C4  angle = 120.3 degree
   26    24    25     2     94.9     29.3     ;  8_C4--8_C1--8_C3  angle = 94.9 degree
   24    26    25     2     47.8     25.6     ;  8_C1--8_C4--8_C3  angle = 47.8 degree
   24    25    26     2     37.3     25.2     ;  8_C1--8_C3--8_C4  angle = 37.3 degree
   30    27    29     2     81.2     33.3     ;  9_C4--9_C1--9_C3  angle = 81.2 degree
   27    30    29     2     63.5     35.4     ;  9_C1--9_C4--9_C3  angle = 63.5 degree
   27    29    28     2     85.7     29.7     ;  9_C1--9_C3--9_C2  angle = 85.7 degree
   27    29    30     2     35.3     34.0     ;  9_C1--9_C3--9_C4  angle = 35.3 degree
   28    29    30     2    120.8     31.4     ;  9_C2--9_C3--9_C4  angle = 120.8 degree
    1     2     3     2    149.7     27.4     ;  1_C--1_CB--2_C1  angle = 149.7 degree
    2     3     5     2    119.7     31.4     ;  1_CB--2_C1--2_C3  angle = 119.7 degree
    2     3     6     2    154.8     36.2     ;  1_CB--2_C1--2_C4  angle = 154.8 degree
    3     6     7     2     81.0     29.9     ;  2_C1--2_C4--3_C1  angle = 81.0 degree
    5     6     7     2    132.3     36.3     ;  2_C3--2_C4--3_C1  angle = 132.3 degree
    6     7     8     2     85.3     19.5     ;  2_C4--3_C1--3_C3  angle = 85.3 degree
    6     7     9     2    148.9     33.3     ;  2_C4--3_C1--3_C4  angle = 148.9 degree
   12    10     6     2     95.5     30.3     ;  4_C3--4_C1--2_C4  angle = 95.5 degree
   13    10     6     2    168.5     28.8     ;  4_C4--4_C1--2_C4  angle = 168.5 degree
   10     6     3     2    120.0     30.4     ;  4_C1--2_C4--2_C1  angle = 120.0 degree
   10     6     5     2     52.3     22.0     ;  4_C1--2_C4--2_C3  angle = 52.3 degree
   10    13    14     2    109.3     29.1     ;  4_C1--4_C4--5_C1  angle = 109.3 degree
   12    13    14     2     46.1     31.4     ;  4_C3--4_C4--5_C1  angle = 46.1 degree
   13    14    16     2    163.9     35.9     ;  4_C4--5_C1--5_C4  angle = 163.9 degree
   13    14    15     2     82.6     27.9     ;  4_C4--5_C1--5_C3  angle = 82.6 degree
   16    15    24     2    113.8     26.8     ;  5_C4--5_C3--8_C1  angle = 113.8 degree
   14    15    24     2    129.3     28.0     ;  5_C1--5_C3--8_C1  angle = 129.3 degree
   15    24    25     2    113.2     33.7     ;  5_C3--8_C1--8_C3  angle = 113.2 degree
   15    24    26     2     98.8     31.3     ;  5_C3--8_C1--8_C4  angle = 98.8 degree
   14    16    17     2     85.9     27.9     ;  5_C1--5_C4--6_C1  angle = 85.9 degree
   15    16    17     2    120.1     32.1     ;  5_C3--5_C4--6_C1  angle = 120.1 degree
   16    17    18     2    114.3     30.4     ;  5_C4--6_C1--6_C3  angle = 114.3 degree
   16    17    19     2    124.2     33.9     ;  5_C4--6_C1--6_C4  angle = 124.2 degree
   17    18    20     2     97.0     27.2     ;  6_C1--6_C3--7_C1  angle = 97.0 degree
   19    18    20     2    124.1     28.7     ;  6_C4--6_C3--7_C1  angle = 124.1 degree
   18    20    22     2    126.7     28.4     ;  6_C3--7_C1--7_C3  angle = 126.7 degree
   18    20    23     2    150.1     24.1     ;  6_C3--7_C1--7_C4  angle = 150.1 degree
   24    25    27     2    101.7     31.2     ;  8_C1--8_C3--9_C1  angle = 101.7 degree
   26    25    27     2    135.4     31.0     ;  8_C4--8_C3--9_C1  angle = 135.4 degree
   25    27    29     2    121.3     30.0     ;  8_C3--9_C1--9_C3  angle = 121.3 degree
   25    27    30     2    149.3     29.1     ;  8_C3--9_C1--9_C4  angle = 149.3 degree

[ dihedrals ]
    6     3     5     4     2    175.7     24.3     ; 2_C4--2_C1--2_C3--2_C2  angle = 175.7 degree
    4     5     6     3     2     -5.3     28.3     ; 2_C2--2_C3--2_C4--2_C1  angle = -5.3 degree
   13    10    12    11     2    176.7     28.6     ; 4_C4--4_C1--4_C3--4_C2  angle = 176.7 degree
   11    12    13    10     2     -3.7     26.8     ; 4_C2--4_C3--4_C4--4_C1  angle = -3.7 degree
   23    20    22    21     2   -173.5     29.4     ; 7_C4--7_C1--7_C3--7_C2  angle = -173.5 degree
   21    22    23    20     2      7.5     31.6     ; 7_C2--7_C3--7_C4--7_C1  angle = 7.5 degree
   30    27    29    28     2   -175.0     37.5     ; 9_C4--9_C1--9_C3--9_C2  angle = -175.0 degree
   28    29    30    27     2      5.8     30.7     ; 9_C2--9_C3--9_C4--9_C1  angle = 5.8 degree
    1     2     3     6     2     93.1     31.0     ; 1_C--1_CB--2_C1--2_C4  angle = 93.1 degree
    1     2     3     5     2   -155.4     29.7     ; 1_C--1_CB--2_C1--2_C3  angle = -155.4 degree
    3     6     7     9     2     74.2     22.3     ; 2_C1--2_C4--3_C1--3_C4  angle = 74.2 degree
    3     6     7     8     2    131.6     29.9     ; 2_C1--2_C4--3_C1--3_C3  angle = 131.6 degree
    5     6     7     9     2     25.6     30.2     ; 2_C3--2_C4--3_C1--3_C4  angle = 25.6 degree
    5     6     7     8     2     82.9     39.9     ; 2_C3--2_C4--3_C1--3_C3  angle = 82.9 degree
    3     6    10    13     2   -102.2     29.2     ; 2_C1--2_C4--4_C1--4_C4  angle = -102.2 degree
    5     6    10    13     2    -98.6     31.2     ; 2_C3--2_C4--4_C1--4_C4  angle = -98.6 degree
    3     6    10    12     2   -179.4     29.9     ; 2_C1--2_C4--4_C1--4_C3  angle = -179.4 degree
    5     6    10    12     2   -175.7     25.3     ; 2_C3--2_C4--4_C1--4_C3  angle = -175.7 degree
   10    13    14    15     2    175.3     34.6     ; 4_C1--4_C4--5_C1--5_C3  angle = 175.3 degree
   10    13    14    16     2   -119.9     33.0     ; 4_C1--4_C4--5_C1--5_C4  angle = -119.9 degree
   12    13    14    15     2    165.1     33.2     ; 4_C3--4_C4--5_C1--5_C3  angle = 165.1 degree
   12    13    14    16     2   -130.1     26.4     ; 4_C3--4_C4--5_C1--5_C4  angle = -130.1 degree
   14    16    17    19     2     42.7     35.6     ; 5_C1--5_C4--6_C1--6_C4  angle = 42.7 degree
   14    16    17    18     2    -71.0     24.4     ; 5_C1--5_C4--6_C1--6_C3  angle = -71.0 degree
   15    16    17    19     2      8.2     32.3     ; 5_C3--5_C4--6_C1--6_C4  angle = 8.2 degree
   15    16    17    18     2   -105.5     38.8     ; 5_C3--5_C4--6_C1--6_C3  angle = -105.5 degree
   14    15    24    26     2   -126.2     26.0     ; 5_C1--5_C3--8_C1--8_C4  angle = -126.2 degree
   14    15    24    25     2    134.6     27.7     ; 5_C1--5_C3--8_C1--8_C3  angle = 134.6 degree
   16    15    24    26     2   -172.8     30.4     ; 5_C4--5_C3--8_C1--8_C4  angle = -172.8 degree
   16    15    24    25     2     88.0     28.0     ; 5_C4--5_C3--8_C1--8_C3  angle = 88.0 degree
   17    18    20    23     2    165.5     23.8     ; 6_C1--6_C3--7_C1--7_C4  angle = 165.5 degree
   17    18    20    22     2    -37.8     30.3     ; 6_C1--6_C3--7_C1--7_C3  angle = -37.8 degree
   19    18    20    23     2   -169.4     25.8     ; 6_C4--6_C3--7_C1--7_C4  angle = -169.4 degree
   19    18    20    22     2    -12.7     31.9     ; 6_C4--6_C3--7_C1--7_C3  angle = -12.7 degree
   24    25    27    30     2    153.7     26.3     ; 8_C1--8_C3--9_C1--9_C4  angle = 153.7 degree
   24    25    27    29     2    -73.9     36.2     ; 8_C1--8_C3--9_C1--9_C3  angle = -73.9 degree
   26    25    27    30     2    172.5     26.9     ; 8_C4--8_C3--9_C1--9_C4  angle = 172.5 degree
   26    25    27    29     2    -55.2     28.7     ; 8_C4--8_C3--9_C1--9_C3  angle = -55.2 degree

[ exclusions ]
1 2 3 4 5 6 7 8 9 10 11 12 13 14 15 16 17 18 19 20 21 22 23 24 25 26 27 28 29 30

