[ angles ]

; angle ASN --- 1BG
1 2 3

; internal angles

;;;;;;; BG1

3 4 6
4 6 3
6 3 4
6 4 5

;;;;;;; 2AF

7 8 9
8 9 7
9 7 8

;;;;;;; 3BG

10 12 13
12 13 10
13 10 12
13 12 11

;;;;;;; 4BM

14 15 16
15 16 14
16 14 15

;;;;;;; 5AM

17 18 19
18 19 17
19 17 18

;;;;;;; 6BG

20 22 23
22 23 20
23 20 22
20 22 21

;;;;;;; 7AM

24 25 26
25 26 24
26 24 25

;;;;;;; 8BG

27 29 30
29 30 27
30 27 29
27 29 28

; external angles

;;;;;;; from ASN to 1BG

2 3 4

;;;;;;; from 1BG to 2AF

3 6 7
6 7 8
 
;;;;;;; from 1BG to 3BG

6 4 10
3 6 10

;;;;;;; from 3BG to 4BM

13 14 15
13 14 16

;;;;;;; from 4BG to 5AM

16 17 18
16 17 19

;;;;;;; from 5AM to 6BG

17 18 20
19 17 20

;;;;;;; from 4BM to 7AM

14 24 26
15 24 25

;;;;;;; from 7AM to 8BG

25 27 30
25 27 29

;;;;;;; Between tree consecutive residues

;;;;;;; ASN 1BG 2AF

2 3 7

;;;;;;; 2AF 1BG 3BG

7 3 10

;;;;;;; 1BG 3BG 4BM

3 10 14

;;;;;;; 3BG 4BM 5AM

10 14 17

;;;;;;; 4BM 5AM 6BM

14 17 20

;;;;;;; 3BG 4BM 7AM

10 14 24

;;;;;;; 4BM 7AM 8BG

14 24 17



