;;;;;; Generated from cg-martini3
; 
; 

[ moleculetype ]
; molname    nrexcl
  MOL         1

[ atoms ]
; nr   type  resnr  residue  atom    cgnr     charge     mass
    1  P2        1  BB    C          1    0.0000   56.0444
    2  SP5       1  SC1   CB         2   -0.1600   57.0524
    3  TP5       2  BG1   C1         3    0.1800   42.0374
    4  TP5       2  BG2   C2         4   -0.0000   71.0794
    5  TP5       2  BG3   C3         5   -0.0000   30.0264
    6  TP5       2  BG4   C4         6   -0.1900   43.0454
    7  TP5       3  AF1   C1         7    0.1800   42.0374
    8  TP5       3  AF2   C3         8   -0.0000   60.0528
    9  TP5       3  AF3   C4         9   -0.0000   45.0614
   10  TP5       4  BG1   C1        10    0.1800   42.0374
   11  TP5       4  BG2   C2        11   -0.0000   71.0794
   12  TP5       4  BG3   C3        12   -0.0000   30.0264
   13  TP5       4  BG4   C4        13   -0.1900   43.0454
   14  TP5       5  BM1   C1        14    0.1800   42.0374
   15  TP5       5  BM2   C3        15   -0.1800   59.0448
   16  TP5       5  BM3   C4        16   -0.1800   60.0528
   17  TP5       6  AM1   C1        17    0.1800   42.0374
   18  TP5       6  AM2   C3        18   -0.1800   59.0448
   19  TP5       6  AM3   C4        19   -0.0000   61.0608
   20  TP5       7  BG1   C1        20    0.1800   42.0374
   21  TP5       7  BG2   C2        21   -0.0000   71.0794
   22  TP5       7  BG3   C3        22   -0.0000   30.0264
   23  TP5       7  BG4   C4        23   -0.1900   43.0454
   24  TP5       8  AM1   C1        24    0.1800   42.0374
   25  TP5       8  AM2   C3        25   -0.1800   59.0448
   26  TP5       8  AM3   C4        26   -0.0000   61.0608
   27  TP5       9  BG1   C1        27    0.1800   42.0374
   28  TP5       9  BG2   C2        28   -0.0000   71.0794
   29  TP5       9  BG3   C3        29   -0.0000   30.0264
   30  TP5       9  BG4   C4        30   -0.1900   43.0454

[ bonds ]
; i    j    funct    length    force_k
    1     2     1    0.293   1264.9     ; 1_C---1_CB dist=2.935
    3     5     1    0.301   1245.9     ; 2_C1---2_C3 dist=3.006
    3     6     1    0.238   1269.4     ; 2_C1---2_C4 dist=2.381
    4     5     1    0.323   1295.7     ; 2_C2---2_C3 dist=3.227
    5     6     1    0.374   1243.0     ; 2_C3---2_C4 dist=3.742
    7     9     1    0.237   1243.0     ; 3_C1---3_C4 dist=2.372
    7     8     1    0.265   1297.4     ; 3_C1---3_C3 dist=2.654
    8     9     1    0.360   1273.0     ; 3_C3---3_C4 dist=3.600
   10    12     1    0.312   1235.9     ; 4_C1---4_C3 dist=3.117
   10    13     1    0.240   1266.3     ; 4_C1---4_C4 dist=2.398
   11    12     1    0.324   1236.1     ; 4_C2---4_C3 dist=3.236
   12    13     1    0.396   1236.0     ; 4_C3---4_C4 dist=3.965
   14    15     1    0.243   1257.3     ; 5_C1---5_C3 dist=2.431
   14    16     1    0.236   1192.6     ; 5_C1---5_C4 dist=2.362
   15    16     1    0.339   1198.3     ; 5_C3---5_C4 dist=3.392
   17    19     1    0.239   1233.1     ; 6_C1---6_C4 dist=2.391
   17    18     1    0.270   1219.6     ; 6_C1---6_C3 dist=2.700
   18    19     1    0.370   1259.4     ; 6_C3---6_C4 dist=3.703
   20    23     1    0.239   1222.8     ; 7_C1---7_C4 dist=2.388
   20    22     1    0.305   1207.6     ; 7_C1---7_C3 dist=3.045
   21    22     1    0.326   1294.0     ; 7_C2---7_C3 dist=3.259
   22    23     1    0.378   1243.2     ; 7_C3---7_C4 dist=3.776
   24    25     1    0.265   1252.0     ; 8_C1---8_C3 dist=2.648
   24    26     1    0.245   1207.3     ; 8_C1---8_C4 dist=2.447
   25    26     1    0.368   1233.7     ; 8_C3---8_C4 dist=3.678
   27    29     1    0.303   1253.3     ; 9_C1---9_C3 dist=3.030
   27    30     1    0.239   1215.5     ; 9_C1---9_C4 dist=2.387
   28    29     1    0.324   1261.3     ; 9_C2---9_C3 dist=3.241
   29    30     1    0.378   1232.0     ; 9_C3---9_C4 dist=3.779
    2     3     1    0.365   1241.2     ; 1_CB---2_C1 dist=3.646
    5    10     1    0.345   1231.9     ; 2_C3---4_C1 dist=3.449
    6     7     1    0.280   1305.6     ; 2_C4---3_C1 dist=2.795
   12    14     1    0.343   1249.6     ; 4_C3---5_C1 dist=3.430
   15    24     1    0.276   1218.3     ; 5_C3---8_C1 dist=2.757
   16    17     1    0.371   1274.7     ; 5_C4---6_C1 dist=3.712
   18    20     1    0.382   1213.4     ; 6_C3---7_C1 dist=3.820
   25    27     1    0.362   1256.3     ; 8_C3---9_C1 dist=3.622

[ angles ]
    5     3     6     2     87.2     22.2     ;  2_C3--2_C1--2_C4  angle = 87.2 degree
    3     5     4     2     88.3     24.7     ;  2_C1--2_C3--2_C2  angle = 88.3 degree
    3     5     6     2     39.5     30.8     ;  2_C1--2_C3--2_C4  angle = 39.5 degree
    4     5     6     2    123.5     33.0     ;  2_C2--2_C3--2_C4  angle = 123.5 degree
    3     6     5     2     53.4     30.7     ;  2_C1--2_C4--2_C3  angle = 53.4 degree
    9     7     8     2     91.4     29.5     ;  3_C4--3_C1--3_C3  angle = 91.4 degree
    7     9     8     2     47.5     28.8     ;  3_C1--3_C4--3_C3  angle = 47.5 degree
    7     8     9     2     41.2     24.1     ;  3_C1--3_C3--3_C4  angle = 41.2 degree
   12    10    13     2     91.0     27.1     ;  4_C3--4_C1--4_C4  angle = 91.0 degree
   10    12    11     2     87.2     28.2     ;  4_C1--4_C3--4_C2  angle = 87.2 degree
   10    12    13     2     37.2     34.2     ;  4_C1--4_C3--4_C4  angle = 37.2 degree
   11    12    13     2    117.7     31.4     ;  4_C2--4_C3--4_C4  angle = 117.7 degree
   10    13    12     2     51.8     22.9     ;  4_C1--4_C4--4_C3  angle = 51.8 degree
   15    14    16     2     90.1     31.3     ;  5_C3--5_C1--5_C4  angle = 90.1 degree
   14    15    16     2     44.1     28.5     ;  5_C1--5_C3--5_C4  angle = 44.1 degree
   14    16    15     2     45.8     27.3     ;  5_C1--5_C4--5_C3  angle = 45.8 degree
   19    17    18     2     93.1     32.4     ;  6_C4--6_C1--6_C3  angle = 93.1 degree
   17    19    18     2     46.7     34.1     ;  6_C1--6_C4--6_C3  angle = 46.7 degree
   17    18    19     2     40.1     33.7     ;  6_C1--6_C3--6_C4  angle = 40.1 degree
   23    20    22     2     87.2     26.6     ;  7_C4--7_C1--7_C3  angle = 87.2 degree
   20    23    22     2     53.7     28.8     ;  7_C1--7_C4--7_C3  angle = 53.7 degree
   20    22    21     2     88.0     31.3     ;  7_C1--7_C3--7_C2  angle = 88.0 degree
   20    22    23     2     39.2     33.9     ;  7_C1--7_C3--7_C4  angle = 39.2 degree
   21    22    23     2    122.8     28.1     ;  7_C2--7_C3--7_C4  angle = 122.8 degree
   25    24    26     2     92.3     29.3     ;  8_C3--8_C1--8_C4  angle = 92.3 degree
   24    25    26     2     41.7     25.6     ;  8_C1--8_C3--8_C4  angle = 41.7 degree
   24    26    25     2     46.0     25.2     ;  8_C1--8_C4--8_C3  angle = 46.0 degree
   29    27    30     2     87.6     33.3     ;  9_C3--9_C1--9_C4  angle = 87.6 degree
   27    29    28     2     88.7     35.4     ;  9_C1--9_C3--9_C2  angle = 88.7 degree
   27    29    30     2     39.1     29.7     ;  9_C1--9_C3--9_C4  angle = 39.1 degree
   28    29    30     2    122.9     34.0     ;  9_C2--9_C3--9_C4  angle = 122.9 degree
   27    30    29     2     53.2     31.4     ;  9_C1--9_C4--9_C3  angle = 53.2 degree
    1     2     3     2    144.6     27.4     ;  1_C--1_CB--2_C1  angle = 144.6 degree
    2     3     5     2    118.8     31.4     ;  1_CB--2_C1--2_C3  angle = 118.8 degree
    2     3     6     2    127.2     36.2     ;  1_CB--2_C1--2_C4  angle = 127.2 degree
    3     5    10     2    113.3     29.9     ;  2_C1--2_C3--4_C1  angle = 113.3 degree
    4     5    10     2    149.6     36.3     ;  2_C2--2_C3--4_C1  angle = 149.6 degree
    6     5    10     2     73.9     19.5     ;  2_C4--2_C3--4_C1  angle = 73.9 degree
    5    10    12     2    150.0     33.3     ;  2_C3--4_C1--4_C3  angle = 150.0 degree
    5    10    13     2    111.9     30.3     ;  2_C3--4_C1--4_C4  angle = 111.9 degree
    3     6     7     2    106.5     28.8     ;  2_C1--2_C4--3_C1  angle = 106.5 degree
    5     6     7     2    136.8     30.4     ;  2_C3--2_C4--3_C1  angle = 136.8 degree
    6     7     8     2     98.7     22.0     ;  2_C4--3_C1--3_C3  angle = 98.7 degree
    6     7     9     2    144.5     29.1     ;  2_C4--3_C1--3_C4  angle = 144.5 degree
   10    12    14     2    110.8     31.4     ;  4_C1--4_C3--5_C1  angle = 110.8 degree
   11    12    14     2    142.3     35.9     ;  4_C2--4_C3--5_C1  angle = 142.3 degree
   13    12    14     2     73.6     27.9     ;  4_C4--4_C3--5_C1  angle = 73.6 degree
   12    14    16     2    127.3     26.8     ;  4_C3--5_C1--5_C4  angle = 127.3 degree
   12    14    15     2    126.3     28.0     ;  4_C3--5_C1--5_C3  angle = 126.3 degree
   16    15    24     2    121.7     33.7     ;  5_C4--5_C3--8_C1  angle = 121.7 degree
   14    15    24     2    133.6     31.3     ;  5_C1--5_C3--8_C1  angle = 133.6 degree
   15    24    25     2    119.1     27.9     ;  5_C3--8_C1--8_C3  angle = 119.1 degree
   15    24    26     2    112.0     32.1     ;  5_C3--8_C1--8_C4  angle = 112.0 degree
   14    16    17     2     94.1     30.4     ;  5_C1--5_C4--6_C1  angle = 94.1 degree
   15    16    17     2    127.4     33.9     ;  5_C3--5_C4--6_C1  angle = 127.4 degree
   16    17    18     2    118.7     27.2     ;  5_C4--6_C1--6_C3  angle = 118.7 degree
   16    17    19     2    131.2     28.7     ;  5_C4--6_C1--6_C4  angle = 131.2 degree
   17    18    20     2     93.4     28.4     ;  6_C1--6_C3--7_C1  angle = 93.4 degree
   19    18    20     2    118.3     24.1     ;  6_C4--6_C3--7_C1  angle = 118.3 degree
   18    20    22     2    127.0     31.2     ;  6_C3--7_C1--7_C3  angle = 127.0 degree
   18    20    23     2    129.2     31.0     ;  6_C3--7_C1--7_C4  angle = 129.2 degree
   24    25    27     2     96.0     30.0     ;  8_C1--8_C3--9_C1  angle = 96.0 degree
   26    25    27     2    126.6     29.1     ;  8_C4--8_C3--9_C1  angle = 126.6 degree
   25    27    29     2    123.8     24.3     ;  8_C3--9_C1--9_C3  angle = 123.8 degree
   25    27    30     2    121.6     28.3     ;  8_C3--9_C1--9_C4  angle = 121.6 degree

[ dihedrals ]
    6     3     5     4     2    154.9     28.6     ; 2_C4--2_C1--2_C3--2_C2  angle = 154.9 degree
    4     5     6     3     2    -30.6     26.8     ; 2_C2--2_C3--2_C4--2_C1  angle = -30.6 degree
   13    10    12    11     2    146.4     29.4     ; 4_C4--4_C1--4_C3--4_C2  angle = 146.4 degree
   11    12    13    10     2    -38.7     31.6     ; 4_C2--4_C3--4_C4--4_C1  angle = -38.7 degree
   23    20    22    21     2    154.3     37.5     ; 7_C4--7_C1--7_C3--7_C2  angle = 154.3 degree
   21    22    23    20     2    -31.0     30.7     ; 7_C2--7_C3--7_C4--7_C1  angle = -31.0 degree
   30    27    29    28     2    152.6     31.0     ; 9_C4--9_C1--9_C3--9_C2  angle = 152.6 degree
   28    29    30    27     2    -33.2     29.7     ; 9_C2--9_C3--9_C4--9_C1  angle = -33.2 degree
    1     2     3     5     2   -152.1     22.3     ; 1_C--1_CB--2_C1--2_C3  angle = -152.1 degree
    1     2     3     6     2     97.6     29.9     ; 1_C--1_CB--2_C1--2_C4  angle = 97.6 degree
    3     6     7     9     2     25.1     30.2     ; 2_C1--2_C4--3_C1--3_C4  angle = 25.1 degree
    3     6     7     8     2    129.9     39.9     ; 2_C1--2_C4--3_C1--3_C3  angle = 129.9 degree
    5     6     7     9     2    -28.5     29.2     ; 2_C3--2_C4--3_C1--3_C4  angle = -28.5 degree
    5     6     7     8     2     76.3     31.2     ; 2_C3--2_C4--3_C1--3_C3  angle = 76.3 degree
    3     5    10    12     2    -23.8     29.9     ; 2_C1--2_C3--4_C1--4_C3  angle = -23.8 degree
    3     5    10    13     2   -160.7     25.3     ; 2_C1--2_C3--4_C1--4_C4  angle = -160.7 degree
    4     5    10    12     2   -155.9     34.6     ; 2_C2--2_C3--4_C1--4_C3  angle = -155.9 degree
    4     5    10    13     2     67.2     33.0     ; 2_C2--2_C3--4_C1--4_C4  angle = 67.2 degree
    6     5    10    12     2    -25.8     33.2     ; 2_C4--2_C3--4_C1--4_C3  angle = -25.8 degree
    6     5    10    13     2   -162.7     26.4     ; 2_C4--2_C3--4_C1--4_C4  angle = -162.7 degree
   10    12    14    15     2    -41.6     35.6     ; 4_C1--4_C3--5_C1--5_C3  angle = -41.6 degree
   10    12    14    16     2   -165.8     24.4     ; 4_C1--4_C3--5_C1--5_C4  angle = -165.8 degree
   11    12    14    15     2   -155.6     32.3     ; 4_C2--4_C3--5_C1--5_C3  angle = -155.6 degree
   11    12    14    16     2     80.2     38.8     ; 4_C2--4_C3--5_C1--5_C4  angle = 80.2 degree
   13    12    14    15     2    -41.4     26.0     ; 4_C4--4_C3--5_C1--5_C3  angle = -41.4 degree
   13    12    14    16     2   -165.6     27.7     ; 4_C4--4_C3--5_C1--5_C4  angle = -165.6 degree
   14    16    17    19     2     73.5     30.4     ; 5_C1--5_C4--6_C1--6_C4  angle = 73.5 degree
   14    16    17    18     2    -50.7     28.0     ; 5_C1--5_C4--6_C1--6_C3  angle = -50.7 degree
   15    16    17    19     2     39.2     23.8     ; 5_C3--5_C4--6_C1--6_C4  angle = 39.2 degree
   15    16    17    18     2    -85.0     30.3     ; 5_C3--5_C4--6_C1--6_C3  angle = -85.0 degree
   14    15    24    25     2    125.2     25.8     ; 5_C1--5_C3--8_C1--8_C3  angle = 125.2 degree
   14    15    24    26     2   -128.9     31.9     ; 5_C1--5_C3--8_C1--8_C4  angle = -128.9 degree
   16    15    24    25     2     70.4     26.3     ; 5_C4--5_C3--8_C1--8_C3  angle = 70.4 degree
   16    15    24    26     2    176.3     36.2     ; 5_C4--5_C3--8_C1--8_C4  angle = 176.3 degree
   17    18    20    23     2   -163.2     26.9     ; 6_C1--6_C3--7_C1--7_C4  angle = -163.2 degree
   17    18    20    22     2    -40.8     28.7     ; 6_C1--6_C3--7_C1--7_C3  angle = -40.8 degree
   19    18    20    23     2   -130.1     33.3     ; 6_C4--6_C3--7_C1--7_C4  angle = -130.1 degree
   19    18    20    22     2     -7.6     25.1     ; 6_C4--6_C3--7_C1--7_C3  angle = -7.6 degree
   24    25    27    29     2    -75.8     30.9     ; 8_C1--8_C3--9_C1--9_C3  angle = -75.8 degree
   24    25    27    30     2    173.5     35.2     ; 8_C1--8_C3--9_C1--9_C4  angle = 173.5 degree
   26    25    27    29     2    -44.9     23.6     ; 8_C4--8_C3--9_C1--9_C3  angle = -44.9 degree
   26    25    27    30     2   -155.5     30.7     ; 8_C4--8_C3--9_C1--9_C4  angle = -155.5 degree

[ exclusions ]
1 2 3 4 5 6 7 8 9 10 11 12 13 14 15 16 17 18 19 20 21 22 23 24 25 26 27 28 29 30

