;;;;;; Generated from cg-martini3
; 
; 

[ moleculetype ]
; molname    nrexcl
  MOL         1

[ atoms ]
; nr   type  resnr  residue  atom    cgnr     charge     mass
    1  P2        1  BB    C          1    0.0000   56.0444
    2  SP5       1  SC1   CB         2   -0.1600   57.0524
    3  TP5       2  BG1   C1         3    0.1800   42.0374
    4  TP5       2  BG2   C2         4   -0.0000   71.0794
    5  TP5       2  BG3   C3         5   -0.0000   30.0264
    6  TP5       2  BG4   C4         6   -0.8400   59.0448
    7  TP5       3  AF1   C1         7    0.1800   42.0374
    8  TP5       3  AF2   C3         8   -0.0000   60.0528
    9  TP5       3  AF3   C4         9   -0.0000   45.0614
   10  TP5       4  BG1   C1        10    0.1800   42.0374
   11  TP5       4  BG2   C2        11   -0.0000   71.0794
   12  TP5       4  BG3   C3        12   -0.0000   30.0264
   13  TP5       4  BG4   C4        13   -0.8400   59.0448
   14  TP5       5  BM1   C1        14    0.1800   42.0374
   15  TP5       5  BM2   C3        15   -0.1800   59.0448
   16  TP5       5  BM3   C4        16   -0.1800   60.0528
   17  TP5       6  AM1   C1        17    0.1800   42.0374
   18  TP5       6  AM2   C3        18   -0.1800   59.0448
   19  TP5       6  AM3   C4        19   -0.0000   61.0608
   20  TP5       7  BG1   C1        20    0.1800   42.0374
   21  TP5       7  BG2   C2        21   -0.0000   71.0794
   22  TP5       7  BG3   C3        22   -0.0000   30.0264
   23  TP5       7  BG4   C4        23   -0.8400   59.0448
   24  TP5       8  AM1   C1        24    0.1800   42.0374
   25  TP5       8  AM2   C3        25   -0.1800   59.0448
   26  TP5       8  AM3   C4        26   -0.0000   61.0608
   27  TP5       9  BG1   C1        27    0.1800   42.0374
   28  TP5       9  BG2   C2        28   -0.0000   71.0794
   29  TP5       9  BG3   C3        29   -0.0000   30.0264
   30  TP5       9  BG4   C4        30   -0.8400   59.0448

[ bonds ]
; i    j    funct    length    force_k
    1     2     1    0.293   1264.9     ; 1_C---1_CB dist=2.935
    3     4     1    0.434   1245.9     ; 2_C1---2_C2 dist=4.343
    3     6     1    0.239   1269.4     ; 2_C1---2_C4 dist=2.394
    4     5     1    0.323   1295.7     ; 2_C2---2_C3 dist=3.227
    5     6     1    0.350   1243.0     ; 2_C3---2_C4 dist=3.501
    7     8     1    0.265   1243.0     ; 3_C1---3_C3 dist=2.654
    7     9     1    0.237   1297.4     ; 3_C1---3_C4 dist=2.372
    8     9     1    0.360   1273.0     ; 3_C3---3_C4 dist=3.600
   10    11     1    0.438   1235.9     ; 4_C1---4_C2 dist=4.384
   10    13     1    0.240   1266.3     ; 4_C1---4_C4 dist=2.397
   11    12     1    0.324   1236.1     ; 4_C2---4_C3 dist=3.236
   12    13     1    0.371   1236.0     ; 4_C3---4_C4 dist=3.706
   14    15     1    0.243   1257.3     ; 5_C1---5_C3 dist=2.431
   14    16     1    0.236   1192.6     ; 5_C1---5_C4 dist=2.362
   15    16     1    0.339   1198.3     ; 5_C3---5_C4 dist=3.392
   17    18     1    0.270   1233.1     ; 6_C1---6_C3 dist=2.700
   17    19     1    0.239   1219.6     ; 6_C1---6_C4 dist=2.391
   18    19     1    0.370   1259.4     ; 6_C3---6_C4 dist=3.703
   20    21     1    0.438   1222.8     ; 7_C1---7_C2 dist=4.383
   20    23     1    0.239   1207.6     ; 7_C1---7_C4 dist=2.386
   21    22     1    0.326   1294.0     ; 7_C2---7_C3 dist=3.259
   22    23     1    0.353   1243.2     ; 7_C3---7_C4 dist=3.525
   24    25     1    0.265   1252.0     ; 8_C1---8_C3 dist=2.648
   24    26     1    0.245   1207.3     ; 8_C1---8_C4 dist=2.447
   25    26     1    0.368   1233.7     ; 8_C3---8_C4 dist=3.678
   27    30     1    0.238   1253.3     ; 9_C1---9_C4 dist=2.383
   27    28     1    0.439   1215.5     ; 9_C1---9_C2 dist=4.388
   28    29     1    0.324   1261.3     ; 9_C2---9_C3 dist=3.241
   29    30     1    0.352   1232.0     ; 9_C3---9_C4 dist=3.525
    2     3     1    0.365   1241.2     ; 1_CB---2_C1 dist=3.646
    6     7     1    0.311   1231.9     ; 2_C4---3_C1 dist=3.112
   10     6     1    0.404   1305.6     ; 4_C1---2_C4 dist=4.037
   13    14     1    0.414   1249.6     ; 4_C4---5_C1 dist=4.145
   15    24     1    0.276   1218.3     ; 5_C3---8_C1 dist=2.757
   16    17     1    0.371   1274.7     ; 5_C4---6_C1 dist=3.712
   18    20     1    0.382   1213.4     ; 6_C3---7_C1 dist=3.820
   25    27     1    0.362   1256.3     ; 8_C3---9_C1 dist=3.622

[ angles ]
    4     3     6     2    124.4     22.2     ;  2_C2--2_C1--2_C4  angle = 124.4 degree
    3     4     5     2     43.8     24.7     ;  2_C1--2_C2--2_C3  angle = 43.8 degree
    3     6     5     2     57.7     30.8     ;  2_C1--2_C4--2_C3  angle = 57.7 degree
    4     5     6     2    127.2     33.0     ;  2_C2--2_C3--2_C4  angle = 127.2 degree
    8     7     9     2     91.4     30.7     ;  3_C3--3_C1--3_C4  angle = 91.4 degree
    7     8     9     2     41.2     29.5     ;  3_C1--3_C3--3_C4  angle = 41.2 degree
    7     9     8     2     47.5     28.8     ;  3_C1--3_C4--3_C3  angle = 47.5 degree
   11    10    13     2    123.5     24.1     ;  4_C2--4_C1--4_C4  angle = 123.5 degree
   10    11    12     2     45.3     27.1     ;  4_C1--4_C2--4_C3  angle = 45.3 degree
   10    13    12     2     56.7     28.2     ;  4_C1--4_C4--4_C3  angle = 56.7 degree
   11    12    13     2    121.0     34.2     ;  4_C2--4_C3--4_C4  angle = 121.0 degree
   15    14    16     2     90.1     31.4     ;  5_C3--5_C1--5_C4  angle = 90.1 degree
   14    15    16     2     44.1     22.9     ;  5_C1--5_C3--5_C4  angle = 44.1 degree
   14    16    15     2     45.8     31.3     ;  5_C1--5_C4--5_C3  angle = 45.8 degree
   18    17    19     2     93.1     28.5     ;  6_C3--6_C1--6_C4  angle = 93.1 degree
   17    18    19     2     40.1     27.3     ;  6_C1--6_C3--6_C4  angle = 40.1 degree
   17    19    18     2     46.7     32.4     ;  6_C1--6_C4--6_C3  angle = 46.7 degree
   21    20    23     2    124.3     34.1     ;  7_C2--7_C1--7_C4  angle = 124.3 degree
   20    21    22     2     44.0     33.7     ;  7_C1--7_C2--7_C3  angle = 44.0 degree
   20    23    22     2     58.3     26.6     ;  7_C1--7_C4--7_C3  angle = 58.3 degree
   21    22    23     2    126.4     28.8     ;  7_C2--7_C3--7_C4  angle = 126.4 degree
   25    24    26     2     92.3     31.3     ;  8_C3--8_C1--8_C4  angle = 92.3 degree
   24    25    26     2     41.7     33.9     ;  8_C1--8_C3--8_C4  angle = 41.7 degree
   24    26    25     2     46.0     28.1     ;  8_C1--8_C4--8_C3  angle = 46.0 degree
   30    27    28     2    123.7     29.3     ;  9_C4--9_C1--9_C2  angle = 123.7 degree
   27    30    29     2     57.9     25.6     ;  9_C1--9_C4--9_C3  angle = 57.9 degree
   27    28    29     2     43.7     25.2     ;  9_C1--9_C2--9_C3  angle = 43.7 degree
   28    29    30     2    126.6     33.3     ;  9_C2--9_C3--9_C4  angle = 126.6 degree
    1     2     3     2    144.6     35.4     ;  1_C--1_CB--2_C1  angle = 144.6 degree
    2     3     4     2     74.1     29.7     ;  1_CB--2_C1--2_C2  angle = 74.1 degree
    2     3     6     2    134.2     34.0     ;  1_CB--2_C1--2_C4  angle = 134.2 degree
    3     6     7     2     97.1     31.4     ;  2_C1--2_C4--3_C1  angle = 97.1 degree
    5     6     7     2    133.9     27.4     ;  2_C3--2_C4--3_C1  angle = 133.9 degree
    6     7     8     2     96.4     31.4     ;  2_C4--3_C1--3_C3  angle = 96.4 degree
    6     7     9     2    145.0     36.2     ;  2_C4--3_C1--3_C4  angle = 145.0 degree
   11    10     6     2     50.8     29.9     ;  4_C2--4_C1--2_C4  angle = 50.8 degree
   13    10     6     2    162.9     36.3     ;  4_C4--4_C1--2_C4  angle = 162.9 degree
   10     6     3     2    111.6     19.5     ;  4_C1--2_C4--2_C1  angle = 111.6 degree
   10     6     5     2     53.9     33.3     ;  4_C1--2_C4--2_C3  angle = 53.9 degree
   10    13    14     2    108.0     30.3     ;  4_C1--4_C4--5_C1  angle = 108.0 degree
   12    13    14     2     51.4     28.8     ;  4_C3--4_C4--5_C1  angle = 51.4 degree
   13    14    16     2    165.6     30.4     ;  4_C4--5_C1--5_C4  angle = 165.6 degree
   13    14    15     2     77.9     22.0     ;  4_C4--5_C1--5_C3  angle = 77.9 degree
   16    15    24     2    121.7     29.1     ;  5_C4--5_C3--8_C1  angle = 121.7 degree
   14    15    24     2    133.6     31.4     ;  5_C1--5_C3--8_C1  angle = 133.6 degree
   15    24    25     2    119.1     35.9     ;  5_C3--8_C1--8_C3  angle = 119.1 degree
   15    24    26     2    112.0     27.9     ;  5_C3--8_C1--8_C4  angle = 112.0 degree
   14    16    17     2     94.1     26.8     ;  5_C1--5_C4--6_C1  angle = 94.1 degree
   15    16    17     2    127.4     28.0     ;  5_C3--5_C4--6_C1  angle = 127.4 degree
   16    17    18     2    118.7     33.7     ;  5_C4--6_C1--6_C3  angle = 118.7 degree
   16    17    19     2    131.2     31.3     ;  5_C4--6_C1--6_C4  angle = 131.2 degree
   17    18    20     2     93.4     27.9     ;  6_C1--6_C3--7_C1  angle = 93.4 degree
   19    18    20     2    118.3     32.1     ;  6_C4--6_C3--7_C1  angle = 118.3 degree
   18    20    21     2     80.2     30.4     ;  6_C3--7_C1--7_C2  angle = 80.2 degree
   18    20    23     2    137.4     33.9     ;  6_C3--7_C1--7_C4  angle = 137.4 degree
   24    25    27     2     96.0     27.2     ;  8_C1--8_C3--9_C1  angle = 96.0 degree
   26    25    27     2    126.6     28.7     ;  8_C4--8_C3--9_C1  angle = 126.6 degree
   25    27    28     2     79.7     28.4     ;  8_C3--9_C1--9_C2  angle = 79.7 degree
   25    27    30     2    129.3     24.1     ;  8_C3--9_C1--9_C4  angle = 129.3 degree

[ dihedrals ]
    6     3     4     5     2    -25.8     31.2     ; 2_C4--2_C1--2_C2--2_C3  angle = -25.8 degree
    4     3     6     5     2     19.2     31.0     ; 2_C2--2_C1--2_C4--2_C3  angle = 19.2 degree
    3     4     5     6     2     17.9     30.0     ; 2_C1--2_C2--2_C3--2_C4  angle = 17.9 degree
    4     5     6     3     2    -27.2     29.1     ; 2_C2--2_C3--2_C4--2_C1  angle = -27.2 degree
   13    10    11    12     2    -37.3     24.3     ; 4_C4--4_C1--4_C2--4_C3  angle = -37.3 degree
   11    10    13    12     2     26.7     28.3     ; 4_C2--4_C1--4_C4--4_C3  angle = 26.7 degree
   10    11    12    13     2     22.4     28.6     ; 4_C1--4_C2--4_C3--4_C4  angle = 22.4 degree
   11    12    13    10     2    -36.4     26.8     ; 4_C2--4_C3--4_C4--4_C1  angle = -36.4 degree
   23    20    21    22     2    -25.9     29.4     ; 7_C4--7_C1--7_C2--7_C3  angle = -25.9 degree
   21    20    23    22     2     19.3     31.6     ; 7_C2--7_C1--7_C4--7_C3  angle = 19.3 degree
   20    21    22    23     2     17.7     37.5     ; 7_C1--7_C2--7_C3--7_C4  angle = 17.7 degree
   21    22    23    20     2    -27.1     30.7     ; 7_C2--7_C3--7_C4--7_C1  angle = -27.1 degree
   28    27    30    29     2     20.5     31.0     ; 9_C2--9_C1--9_C4--9_C3  angle = 20.5 degree
   30    27    28    29     2    -27.8     29.7     ; 9_C4--9_C1--9_C2--9_C3  angle = -27.8 degree
   27    28    29    30     2     19.1     22.3     ; 9_C1--9_C2--9_C3--9_C4  angle = 19.1 degree
   28    29    30    27     2    -29.4     29.9     ; 9_C2--9_C3--9_C4--9_C1  angle = -29.4 degree
    1     2     3     4     2   -134.3     30.2     ; 1_C--1_CB--2_C1--2_C2  angle = -134.3 degree
    1     2     3     6     2    103.0     39.9     ; 1_C--1_CB--2_C1--2_C4  angle = 103.0 degree
    3     6     7     8     2    132.4     29.2     ; 2_C1--2_C4--3_C1--3_C3  angle = 132.4 degree
    3     6     7     9     2     30.8     31.2     ; 2_C1--2_C4--3_C1--3_C4  angle = 30.8 degree
    5     6     7     8     2     81.2     29.9     ; 2_C3--2_C4--3_C1--3_C3  angle = 81.2 degree
    5     6     7     9     2    -20.4     25.3     ; 2_C3--2_C4--3_C1--3_C4  angle = -20.4 degree
    3     6    10    11     2    156.4     34.6     ; 2_C1--2_C4--4_C1--4_C2  angle = 156.4 degree
    5     6    10    11     2    155.8     33.0     ; 2_C3--2_C4--4_C1--4_C2  angle = 155.8 degree
    3     6    10    13     2     79.6     33.2     ; 2_C1--2_C4--4_C1--4_C4  angle = 79.6 degree
    5     6    10    13     2     78.9     26.4     ; 2_C3--2_C4--4_C1--4_C4  angle = 78.9 degree
   10    13    14    15     2    151.5     35.6     ; 4_C1--4_C4--5_C1--5_C3  angle = 151.5 degree
   10    13    14    16     2    117.7     24.4     ; 4_C1--4_C4--5_C1--5_C4  angle = 117.7 degree
   12    13    14    15     2    148.5     32.3     ; 4_C3--4_C4--5_C1--5_C3  angle = 148.5 degree
   12    13    14    16     2    114.7     38.8     ; 4_C3--4_C4--5_C1--5_C4  angle = 114.7 degree
   14    16    17    18     2    -50.7     26.0     ; 5_C1--5_C4--6_C1--6_C3  angle = -50.7 degree
   14    16    17    19     2     73.5     27.7     ; 5_C1--5_C4--6_C1--6_C4  angle = 73.5 degree
   15    16    17    18     2    -85.0     30.4     ; 5_C3--5_C4--6_C1--6_C3  angle = -85.0 degree
   15    16    17    19     2     39.2     28.0     ; 5_C3--5_C4--6_C1--6_C4  angle = 39.2 degree
   14    15    24    25     2    125.2     23.8     ; 5_C1--5_C3--8_C1--8_C3  angle = 125.2 degree
   14    15    24    26     2   -128.9     30.3     ; 5_C1--5_C3--8_C1--8_C4  angle = -128.9 degree
   16    15    24    25     2     70.4     25.8     ; 5_C4--5_C3--8_C1--8_C3  angle = 70.4 degree
   16    15    24    26     2    176.3     31.9     ; 5_C4--5_C3--8_C1--8_C4  angle = 176.3 degree
   17    18    20    21     2    -29.4     26.3     ; 6_C1--6_C3--7_C1--7_C2  angle = -29.4 degree
   17    18    20    23     2   -160.5     36.2     ; 6_C1--6_C3--7_C1--7_C4  angle = -160.5 degree
   19    18    20    21     2      3.7     26.9     ; 6_C4--6_C3--7_C1--7_C2  angle = 3.7 degree
   19    18    20    23     2   -127.4     28.7     ; 6_C4--6_C3--7_C1--7_C4  angle = -127.4 degree
   24    25    27    30     2    177.6     33.3     ; 8_C1--8_C3--9_C1--9_C4  angle = 177.6 degree
   24    25    27    28     2    -56.9     25.1     ; 8_C1--8_C3--9_C1--9_C2  angle = -56.9 degree
   26    25    27    30     2   -151.5     30.9     ; 8_C4--8_C3--9_C1--9_C4  angle = -151.5 degree
   26    25    27    28     2    -26.0     35.2     ; 8_C4--8_C3--9_C1--9_C2  angle = -26.0 degree

[ exclusions ]
1 2 3 4 5 6 7 8 9 10 11 12 13 14 15 16 17 18 19 20 21 22 23 24 25 26 27 28 29 30

