; Generated by build_cg_itp.py

[ moleculetype ]
; molname    nrexcl
  MOL         1

[ atoms ]
; nr   type  resnr  residue  atom    cgnr     charge     mass
    1  P2        1  BB    C          1    0.0000   56.0444
    2  SP5       1  SC1   CB         2   -0.1600   57.0524
    3  TP5       2  BG1   C1         3    0.1800   42.0374
    4  TP5       2  BG2   C2         4   -0.0000   71.0794
    5  TP5       2  BG3   C3         5   -0.0000   30.0264
    6  TP5       2  BG4   C4         6   -0.8400   59.0448
    7  TP5       3  AF1   C1         7    0.1800   42.0374
    8  TP5       3  AF2   C3         8   -0.0000   60.0528
    9  TP5       3  AF3   C4         9   -0.0000   45.0614
   10  TP5       4  BG1   C1        10    0.1800   42.0374
   11  TP5       4  BG2   C2        11   -0.0000   71.0794
   12  TP5       4  BG3   C3        12   -0.0000   30.0264
   13  TP5       4  BG4   C4        13   -0.8400   59.0448
   14  TP5       5  BM1   C1        14    0.1800   42.0374
   15  TP5       5  BM2   C3        15   -0.1800   59.0448
   16  TP5       5  BM3   C4        16   -0.1800   60.0528
   17  TP5       6  AM1   C1        17    0.1800   42.0374
   18  TP5       6  AM2   C3        18   -0.1800   59.0448
   19  TP5       6  AM3   C4        19   -0.0000   61.0608
   20  TP5       7  BG1   C1        20    0.1800   42.0374
   21  TP5       7  BG2   C2        21   -0.0000   71.0794
   22  TP5       7  BG3   C3        22   -0.0000   30.0264
   23  TP5       7  BG4   C4        23   -0.8400   59.0448
   24  TP5       8  AM1   C1        24    0.1800   42.0374
   25  TP5       8  AM2   C3        25   -0.1800   59.0448
   26  TP5       8  AM3   C4        26   -0.0000   61.0608
   27  TP5       9  BG1   C1        27    0.1800   42.0374
   28  TP5       9  BG2   C2        28   -0.0000   71.0794
   29  TP5       9  BG3   C3        29   -0.0000   30.0264
   30  TP5       9  BG4   C4        30   -0.8400   59.0448

; Bonds, angles, and dihedrals will be added later.
