[ BB ]
1 2 3 4 12 13

[ SC1 ]
5 6 7 8 9 10 11

[ BG1 ]
14 15 16 17 18

[ BG2 ]
19 20 21 22 23 24 25 26 27 28

[ BG3 ]
29 30 31 32

[ BG4 ]
33 34 35 36 37 38 39

[ AF1 ]
40 41 42 43 44

[ AF2 ]
45 46 47 48 49 50 51 52

[ AF3 ]
53 54 55 56 57 58 59 60

[ BG1 ]
61 62 63 64 65

[ BG2 ]
66 67 68 69 70 71 72 73 74 75

[ BG3 ]
76 77 78 79

[ BG4 ]
80 81 82 83 84 85 86

[ BM1 ]
88 89 90 91 92

[ BM2 ]
93 94 95 96 97 98 99

[ BM3 ]
100 101 102 103 104 105 106 107

[ AM1 ]
108 109 110 111 112

[ AM2 ]
113 114 115 116 117 118 119

[ AM3 ]
120 121 122 123 124 125 126 127 128

[ BG1 ]
129 130 131 132 133

[ BG2 ]
134 135 136 137 138 139 140 141 142 143

[ BG3 ]
144 145 146 147

[ BG4 ]
148 149 150 152 153 154 155

[ AM1 ]
157 158 159 160 161

[ AM2 ]
162 163 164 165 166 167 168

[ AM3 ]
169 170 171 172 173 174 175 176 177

[ BG1 ]
178 179 180 181 182

[ BG2 ]
183 184 185 186 187 188 189 190 191 192

[ BG3 ]
193 194 195 196

[ BG4 ]
197 198 199 201 202 203 204

