
integrator               = md
dt                       = 0.0020 ; (step = 2 fs)
nsteps                   = 500000      ; 1000 ps (1 ns)

define                   = -DPOSRES_ASN_FA2
refcoord_scaling         = com

; Center of mass removal
comm-mode                = Linear
nstcomm                  = 100
comm-grps                = glycoprotein Water_ions

; Output control
nstxout                  = 100
nstvout                  = 100
nstfout                  = 100
nstlog                   = 1000
nstenergy                = 1000
nstxout-compressed       = 1000
compressed-x-precision   = 100

; Neighborsearching
cutoff-scheme            = Verlet
nstlist                  = 20
rlist                    = 1.35
verlet-buffer-tolerance  = -1

; Electrostatics
coulombtype              = reaction-field
rcoulomb                 = 1.1
epsilon_r                = 15
epsilon_rf               = 0

vdw_type                 = cutoff
vdw-modifier             = Potential-shift-verlet
rvdw                     = 1.1

pbc                      = xyz

; Temperature coupling
tcoupl                   = v-rescale
tc-grps                  = glycoprotein Water_ions
tau_t                    = 1.0 1.0
ref_t                    = 310 310

; NO PRESSURE COUPLING YET

Pcoupl                   = berendsen
Pcoupltype               = isotropic
tau_p                    =  5.0
compressibility          = 4e-5
ref_p                    =  1.0

; Velocity generation
gen_vel                  = yes
gen_temp                 = 310
continuation             = no

constraints              = none 
constraint_algorithm     = Lincs
