;;
;; Generated by CHARMM-GUI FF-Converter
;;
;; Correspondance:
;; jul316@lehigh.edu or wonpil@lehigh.edu
;;
;; GROMACS topology file for PROA
;;


[ moleculetype ]
; name	nrexcl
PROA	     3

[ atoms ]
; nr	type	resnr	residu	atom	cgnr	charge	mass
   465        NH1    149      ASN      N    465    -0.470000    14.0070   ; qtot  0.530
   466          H    149      ASN     HN    466     0.310000     1.0080   ; qtot  0.840
   467        CT1    149      ASN     CA    467     0.070000    12.0110   ; qtot  0.910
   468        HB1    149      ASN     HA    468     0.090000     1.0080   ; qtot  1.000
   469      CC321    149      ASN     CB    469    -0.180000    12.0110   ; qtot  0.820
   470       HCA2    149      ASN    HB1    470     0.090000     1.0080   ; qtot  0.910
   471       HCA2    149      ASN    HB2    471     0.090000     1.0080   ; qtot  1.000
   472      CC2O1    149      ASN     CG    472     0.510000    12.0110   ; qtot  1.510
   473      OC2D1    149      ASN    OD1    473    -0.510000    15.9994   ; qtot  1.000
   474      NC2D1    149      ASN    ND2    474    -0.470000    14.0070   ; qtot  0.530
   475       HCP1    149      ASN   HD22    475     0.310000     1.0080   ; qtot  0.840
   476          C    149      ASN      C    476     0.510000    12.0110   ; qtot  1.350
   477          O    149      ASN      O    477    -0.510000    15.9994   ; qtot  0.840
   675     CC3162      1   BGLCNA     C1    675     0.270000    12.0110   ; qtot  0.110
   676       HCA1      1   BGLCNA     H1    676     0.090000     1.0080   ; qtot  0.200
   677     CC3163      1   BGLCNA     C5    677     0.110000    12.0110   ; qtot  0.310
   678       HCA1      1   BGLCNA     H5    678     0.090000     1.0080   ; qtot  0.400
   679     OC3C61      1   BGLCNA     O5    679    -0.400000    15.9994   ; qtot  0.000
   680     CC3161      1   BGLCNA     C2    680     0.070000    12.0110   ; qtot  0.070
   681       HCA1      1   BGLCNA     H2    681     0.090000     1.0080   ; qtot  0.160
   682      NC2D1      1   BGLCNA      N    682    -0.470000    14.0070   ; qtot -0.310
   683       HCP1      1   BGLCNA     HN    683     0.310000     1.0080   ; qtot  0.000
   684      CC2O1      1   BGLCNA      C    684     0.510000    12.0110   ; qtot  0.510
   685      OC2D1      1   BGLCNA      O    685    -0.510000    15.9994   ; qtot  0.000
   686      CC331      1   BGLCNA     CT    686    -0.270000    12.0110   ; qtot -0.270
   687       HCA3      1   BGLCNA    HT1    687     0.090000     1.0080   ; qtot -0.180
   688       HCA3      1   BGLCNA    HT2    688     0.090000     1.0080   ; qtot -0.090
   689       HCA3      1   BGLCNA    HT3    689     0.090000     1.0080   ; qtot  0.000
   690     CC3161      1   BGLCNA     C3    690     0.140000    12.0110   ; qtot  0.140
   691       HCA1      1   BGLCNA     H3    691     0.090000     1.0080   ; qtot  0.230
   692      OC311      1   BGLCNA     O3    692    -0.650000    15.9994   ; qtot -0.420
   693       HCP1      1   BGLCNA    HO3    693     0.420000     1.0080   ; qtot  0.000
   694     CC3161      1   BGLCNA     C4    694     0.090000    12.0110   ; qtot  0.090
   695       HCA1      1   BGLCNA     H4    695     0.090000     1.0080   ; qtot  0.180
   696      OC301      1   BGLCNA     O4    696    -0.360000    15.9994   ; qtot -0.180
   697      CC321      1   BGLCNA     C6    697     0.000000    12.0110   ; qtot -0.180
   698       HCA2      1   BGLCNA    H61    698     0.090000     1.0080   ; qtot -0.090
   699       HCA2      1   BGLCNA    H62    699     0.090000     1.0080   ; qtot  0.000
   700      OC301      1   BGLCNA     O6    700    -0.360000    15.9994   ; qtot -0.360
   701     CC3162      2     AFUC     C1    701     0.290000    12.0110   ; qtot -0.070
   702       HCA1      2     AFUC     H1    702     0.090000     1.0080   ; qtot  0.020
   703     CC3163      2     AFUC     C5    703     0.110000    12.0110   ; qtot  0.130
   704       HCA1      2     AFUC     H5    704     0.090000     1.0080   ; qtot  0.220
   705     OC3C61      2     AFUC     O5    705    -0.400000    15.9994   ; qtot -0.180
   706     CC3161      2     AFUC     C2    706     0.140000    12.0110   ; qtot -0.040
   707       HCA1      2     AFUC     H2    707     0.090000     1.0080   ; qtot  0.050
   708      OC311      2     AFUC     O2    708    -0.650000    15.9994   ; qtot -0.600
   709       HCP1      2     AFUC    HO2    709     0.420000     1.0080   ; qtot -0.180
   710     CC3161      2     AFUC     C3    710     0.140000    12.0110   ; qtot -0.040
   711       HCA1      2     AFUC     H3    711     0.090000     1.0080   ; qtot  0.050
   712      OC311      2     AFUC     O3    712    -0.650000    15.9994   ; qtot -0.600
   713       HCP1      2     AFUC    HO3    713     0.420000     1.0080   ; qtot -0.180
   714     CC3161      2     AFUC     C4    714     0.140000    12.0110   ; qtot -0.040
   715       HCA1      2     AFUC     H4    715     0.090000     1.0080   ; qtot  0.050
   716      OC311      2     AFUC     O4    716    -0.650000    15.9994   ; qtot -0.600
   717       HCP1      2     AFUC    HO4    717     0.420000     1.0080   ; qtot -0.180
   718      CC331      2     AFUC     C6    718    -0.270000    12.0110   ; qtot -0.450
   719       HCA3      2     AFUC    H61    719     0.090000     1.0080   ; qtot -0.360
   720       HCA3      2     AFUC    H62    720     0.090000     1.0080   ; qtot -0.270
   721       HCA3      2     AFUC    H63    721     0.090000     1.0080   ; qtot -0.180
   722     CC3162      3   BGLCNA     C1    722     0.290000    12.0110   ; qtot  0.110
   723       HCA1      3   BGLCNA     H1    723     0.090000     1.0080   ; qtot  0.200
   724     CC3163      3   BGLCNA     C5    724     0.110000    12.0110   ; qtot  0.310
   725       HCA1      3   BGLCNA     H5    725     0.090000     1.0080   ; qtot  0.400
   726     OC3C61      3   BGLCNA     O5    726    -0.400000    15.9994   ; qtot  0.000
   727     CC3161      3   BGLCNA     C2    727     0.070000    12.0110   ; qtot  0.070
   728       HCA1      3   BGLCNA     H2    728     0.090000     1.0080   ; qtot  0.160
   729      NC2D1      3   BGLCNA      N    729    -0.470000    14.0070   ; qtot -0.310
   730       HCP1      3   BGLCNA     HN    730     0.310000     1.0080   ; qtot  0.000
   731      CC2O1      3   BGLCNA      C    731     0.510000    12.0110   ; qtot  0.510
   732      OC2D1      3   BGLCNA      O    732    -0.510000    15.9994   ; qtot  0.000
   733      CC331      3   BGLCNA     CT    733    -0.270000    12.0110   ; qtot -0.270
   734       HCA3      3   BGLCNA    HT1    734     0.090000     1.0080   ; qtot -0.180
   735       HCA3      3   BGLCNA    HT2    735     0.090000     1.0080   ; qtot -0.090
   736       HCA3      3   BGLCNA    HT3    736     0.090000     1.0080   ; qtot  0.000
   737     CC3161      3   BGLCNA     C3    737     0.140000    12.0110   ; qtot  0.140
   738       HCA1      3   BGLCNA     H3    738     0.090000     1.0080   ; qtot  0.230
   739      OC311      3   BGLCNA     O3    739    -0.650000    15.9994   ; qtot -0.420
   740       HCP1      3   BGLCNA    HO3    740     0.420000     1.0080   ; qtot  0.000
   741     CC3161      3   BGLCNA     C4    741     0.090000    12.0110   ; qtot  0.090
   742       HCA1      3   BGLCNA     H4    742     0.090000     1.0080   ; qtot  0.180
   743      OC301      3   BGLCNA     O4    743    -0.360000    15.9994   ; qtot -0.180
   744      CC321      3   BGLCNA     C6    744     0.050000    12.0110   ; qtot -0.130
   745       HCA2      3   BGLCNA    H61    745     0.090000     1.0080   ; qtot -0.040
   746       HCA2      3   BGLCNA    H62    746     0.090000     1.0080   ; qtot  0.050
   747      OC311      3   BGLCNA     O6    747    -0.650000    15.9994   ; qtot -0.600
   748       HCP1      3   BGLCNA    HO6    748     0.420000     1.0080   ; qtot -0.180
   749     CC3162      4     BMAN     C1    749     0.290000    12.0110   ; qtot  0.110
   750       HCA1      4     BMAN     H1    750     0.090000     1.0080   ; qtot  0.200
   751     CC3163      4     BMAN     C5    751     0.110000    12.0110   ; qtot  0.310
   752       HCA1      4     BMAN     H5    752     0.090000     1.0080   ; qtot  0.400
   753     OC3C61      4     BMAN     O5    753    -0.400000    15.9994   ; qtot  0.000
   754     CC3161      4     BMAN     C2    754     0.140000    12.0110   ; qtot  0.140
   755       HCA1      4     BMAN     H2    755     0.090000     1.0080   ; qtot  0.230
   756      OC311      4     BMAN     O2    756    -0.650000    15.9994   ; qtot -0.420
   757       HCP1      4     BMAN    HO2    757     0.420000     1.0080   ; qtot  0.000
   758     CC3161      4     BMAN     C3    758     0.090000    12.0110   ; qtot  0.090
   759       HCA1      4     BMAN     H3    759     0.090000     1.0080   ; qtot  0.180
   760      OC301      4     BMAN     O3    760    -0.360000    15.9994   ; qtot -0.180
   761     CC3161      4     BMAN     C4    761     0.140000    12.0110   ; qtot -0.040
   762       HCA1      4     BMAN     H4    762     0.090000     1.0080   ; qtot  0.050
   763      OC311      4     BMAN     O4    763    -0.650000    15.9994   ; qtot -0.600
   764       HCP1      4     BMAN    HO4    764     0.420000     1.0080   ; qtot -0.180
   765      CC321      4     BMAN     C6    765     0.000000    12.0110   ; qtot -0.180
   766       HCA2      4     BMAN    H61    766     0.090000     1.0080   ; qtot -0.090
   767       HCA2      4     BMAN    H62    767     0.090000     1.0080   ; qtot  0.000
   768      OC301      4     BMAN     O6    768    -0.360000    15.9994   ; qtot -0.360
   769     CC3162      5     AMAN     C1    769     0.290000    12.0110   ; qtot -0.070
   770       HCA1      5     AMAN     H1    770     0.090000     1.0080   ; qtot  0.020
   771     CC3163      5     AMAN     C5    771     0.110000    12.0110   ; qtot  0.130
   772       HCA1      5     AMAN     H5    772     0.090000     1.0080   ; qtot  0.220
   773     OC3C61      5     AMAN     O5    773    -0.400000    15.9994   ; qtot -0.180
   774     CC3161      5     AMAN     C2    774     0.090000    12.0110   ; qtot -0.090
   775       HCA1      5     AMAN     H2    775     0.090000     1.0080   ; qtot  0.000
   776      OC301      5     AMAN     O2    776    -0.360000    15.9994   ; qtot -0.360
   777     CC3161      5     AMAN     C3    777     0.140000    12.0110   ; qtot -0.220
   778       HCA1      5     AMAN     H3    778     0.090000     1.0080   ; qtot -0.130
   779      OC311      5     AMAN     O3    779    -0.650000    15.9994   ; qtot -0.780
   780       HCP1      5     AMAN    HO3    780     0.420000     1.0080   ; qtot -0.360
   781     CC3161      5     AMAN     C4    781     0.140000    12.0110   ; qtot -0.220
   782       HCA1      5     AMAN     H4    782     0.090000     1.0080   ; qtot -0.130
   783      OC311      5     AMAN     O4    783    -0.650000    15.9994   ; qtot -0.780
   784       HCP1      5     AMAN    HO4    784     0.420000     1.0080   ; qtot -0.360
   785      CC321      5     AMAN     C6    785     0.050000    12.0110   ; qtot -0.310
   786       HCA2      5     AMAN    H61    786     0.090000     1.0080   ; qtot -0.220
   787       HCA2      5     AMAN    H62    787     0.090000     1.0080   ; qtot -0.130
   788      OC311      5     AMAN     O6    788    -0.650000    15.9994   ; qtot -0.780
   789       HCP1      5     AMAN    HO6    789     0.420000     1.0080   ; qtot -0.360
   790     CC3162      6   BGLCNA     C1    790     0.290000    12.0110   ; qtot -0.070
   791       HCA1      6   BGLCNA     H1    791     0.090000     1.0080   ; qtot  0.020
   792     CC3163      6   BGLCNA     C5    792     0.110000    12.0110   ; qtot  0.130
   793       HCA1      6   BGLCNA     H5    793     0.090000     1.0080   ; qtot  0.220
   794     OC3C61      6   BGLCNA     O5    794    -0.400000    15.9994   ; qtot -0.180
   795     CC3161      6   BGLCNA     C2    795     0.070000    12.0110   ; qtot -0.110
   796       HCA1      6   BGLCNA     H2    796     0.090000     1.0080   ; qtot -0.020
   797      NC2D1      6   BGLCNA      N    797    -0.470000    14.0070   ; qtot -0.490
   798       HCP1      6   BGLCNA     HN    798     0.310000     1.0080   ; qtot -0.180
   799      CC2O1      6   BGLCNA      C    799     0.510000    12.0110   ; qtot  0.330
   800      OC2D1      6   BGLCNA      O    800    -0.510000    15.9994   ; qtot -0.180
   801      CC331      6   BGLCNA     CT    801    -0.270000    12.0110   ; qtot -0.450
   802       HCA3      6   BGLCNA    HT1    802     0.090000     1.0080   ; qtot -0.360
   803       HCA3      6   BGLCNA    HT2    803     0.090000     1.0080   ; qtot -0.270
   804       HCA3      6   BGLCNA    HT3    804     0.090000     1.0080   ; qtot -0.180
   805     CC3161      6   BGLCNA     C3    805     0.140000    12.0110   ; qtot -0.040
   806       HCA1      6   BGLCNA     H3    806     0.090000     1.0080   ; qtot  0.050
   807      OC311      6   BGLCNA     O3    807    -0.650000    15.9994   ; qtot -0.600
   808       HCP1      6   BGLCNA    HO3    808     0.420000     1.0080   ; qtot -0.180
   809     CC3161      6   BGLCNA     C4    809     0.140000    12.0110   ; qtot -0.040
   810       HCA1      6   BGLCNA     H4    810     0.090000     1.0080   ; qtot  0.050
   811      OC311      6   BGLCNA     O4    811    -0.650000    15.9994   ; qtot -0.600
   812       HCP1      6   BGLCNA    HO4    812     0.420000     1.0080   ; qtot -0.180
   813      CC321      6   BGLCNA     C6    813     0.050000    12.0110   ; qtot -0.130
   814       HCA2      6   BGLCNA    H61    814     0.090000     1.0080   ; qtot -0.040
   815       HCA2      6   BGLCNA    H62    815     0.090000     1.0080   ; qtot  0.050
   816      OC311      6   BGLCNA     O6    816    -0.650000    15.9994   ; qtot -0.600
   817       HCP1      6   BGLCNA    HO6    817     0.420000     1.0080   ; qtot -0.180
   818     CC3162      7     AMAN     C1    818     0.290000    12.0110   ; qtot  0.110
   819       HCA1      7     AMAN     H1    819     0.090000     1.0080   ; qtot  0.200
   820     CC3163      7     AMAN     C5    820     0.110000    12.0110   ; qtot  0.310
   821       HCA1      7     AMAN     H5    821     0.090000     1.0080   ; qtot  0.400
   822     OC3C61      7     AMAN     O5    822    -0.400000    15.9994   ; qtot  0.000
   823     CC3161      7     AMAN     C2    823     0.090000    12.0110   ; qtot  0.090
   824       HCA1      7     AMAN     H2    824     0.090000     1.0080   ; qtot  0.180
   825      OC301      7     AMAN     O2    825    -0.360000    15.9994   ; qtot -0.180
   826     CC3161      7     AMAN     C3    826     0.140000    12.0110   ; qtot -0.040
   827       HCA1      7     AMAN     H3    827     0.090000     1.0080   ; qtot  0.050
   828      OC311      7     AMAN     O3    828    -0.650000    15.9994   ; qtot -0.600
   829       HCP1      7     AMAN    HO3    829     0.420000     1.0080   ; qtot -0.180
   830     CC3161      7     AMAN     C4    830     0.140000    12.0110   ; qtot -0.040
   831       HCA1      7     AMAN     H4    831     0.090000     1.0080   ; qtot  0.050
   832      OC311      7     AMAN     O4    832    -0.650000    15.9994   ; qtot -0.600
   833       HCP1      7     AMAN    HO4    833     0.420000     1.0080   ; qtot -0.180
   834      CC321      7     AMAN     C6    834     0.050000    12.0110   ; qtot -0.130
   835       HCA2      7     AMAN    H61    835     0.090000     1.0080   ; qtot -0.040
   836       HCA2      7     AMAN    H62    836     0.090000     1.0080   ; qtot  0.050
   837      OC311      7     AMAN     O6    837    -0.650000    15.9994   ; qtot -0.600
   838       HCP1      7     AMAN    HO6    838     0.420000     1.0080   ; qtot -0.180
   839     CC3162      8   BGLCNA     C1    839     0.290000    12.0110   ; qtot  0.110
   840       HCA1      8   BGLCNA     H1    840     0.090000     1.0080   ; qtot  0.200
   841     CC3163      8   BGLCNA     C5    841     0.110000    12.0110   ; qtot  0.310
   842       HCA1      8   BGLCNA     H5    842     0.090000     1.0080   ; qtot  0.400
   843     OC3C61      8   BGLCNA     O5    843    -0.400000    15.9994   ; qtot  0.000
   844     CC3161      8   BGLCNA     C2    844     0.070000    12.0110   ; qtot  0.070
   845       HCA1      8   BGLCNA     H2    845     0.090000     1.0080   ; qtot  0.160
   846      NC2D1      8   BGLCNA      N    846    -0.470000    14.0070   ; qtot -0.310
   847       HCP1      8   BGLCNA     HN    847     0.310000     1.0080   ; qtot  0.000
   848      CC2O1      8   BGLCNA      C    848     0.510000    12.0110   ; qtot  0.510
   849      OC2D1      8   BGLCNA      O    849    -0.510000    15.9994   ; qtot  0.000
   850      CC331      8   BGLCNA     CT    850    -0.270000    12.0110   ; qtot -0.270
   851       HCA3      8   BGLCNA    HT1    851     0.090000     1.0080   ; qtot -0.180
   852       HCA3      8   BGLCNA    HT2    852     0.090000     1.0080   ; qtot -0.090
   853       HCA3      8   BGLCNA    HT3    853     0.090000     1.0080   ; qtot  0.000
   854     CC3161      8   BGLCNA     C3    854     0.140000    12.0110   ; qtot  0.140
   855       HCA1      8   BGLCNA     H3    855     0.090000     1.0080   ; qtot  0.230
   856      OC311      8   BGLCNA     O3    856    -0.650000    15.9994   ; qtot -0.420
   857       HCP1      8   BGLCNA    HO3    857     0.420000     1.0080   ; qtot  0.000
   858     CC3161      8   BGLCNA     C4    858     0.140000    12.0110   ; qtot  0.140
   859       HCA1      8   BGLCNA     H4    859     0.090000     1.0080   ; qtot  0.230
   860      OC311      8   BGLCNA     O4    860    -0.650000    15.9994   ; qtot -0.420
   861       HCP1      8   BGLCNA    HO4    861     0.420000     1.0080   ; qtot  0.000
   862      CC321      8   BGLCNA     C6    862     0.050000    12.0110   ; qtot  0.050
   863       HCA2      8   BGLCNA    H61    863     0.090000     1.0080   ; qtot  0.140
   864       HCA2      8   BGLCNA    H62    864     0.090000     1.0080   ; qtot  0.230
   865      OC311      8   BGLCNA     O6    865    -0.650000    15.9994   ; qtot -0.420
   866       HCP1      8   BGLCNA    HO6    866     0.420000     1.0080   ; qtot  0.000

[ bonds ]
; ai	aj	funct	b0	Kb
    2     1     1
    3     1     1
    4     1     1
    1     5     1
    5     6     1
    7     5     1
   17     5     1
    7     8     1
    9     7     1
   13     7     1
    9    10     1
    9    11     1
    9    12     1
   13    14     1
   13    15     1
   13    16     1
   18    17     1
   17    19     1
   19    20     1
   19    21     1
   21    22     1
   23    21     1
   31    21     1
   23    24     1
   23    25     1
   26    23     1
   26    27     1
   28    26     1
   28    29     1
   28    30     1
   31    32     1
   31    33     1
   33    34     1
   33    35     1
   35    36     1
   37    35     1
   45    35     1
   37    38     1
   37    39     1
   40    37     1
   40    41     1
   42    40     1
   42    43     1
   42    44     1
   45    46     1
   45    47     1
   47    48     1
   47    49     1
   49    50     1
   51    49     1
   55    49     1
   51    52     1
   51    53     1
   51    54     1
   56    55     1
   55    57     1
   57    58     1
   57    59     1
   59    60     1
   61    59     1
   69    59     1
   61    62     1
   63    61     1
   65    61     1
   63    64     1
   65    66     1
   65    67     1
   65    68     1
   70    69     1
   69    71     1
   71    72     1
   71    73     1
   73    74     1
   75    73     1
   83    73     1
   75    76     1
   75    77     1
   78    75     1
   78    79     1
   80    78     1
   80    81     1
   80    82     1
   83    84     1
   83    85     1
   85    86     1
   85    87     1
   87    88     1
   89    87     1
   99    87     1
   89    90     1
   91    89     1
   95    89     1
   91    92     1
   91    93     1
   91    94     1
   95    96     1
   95    97     1
   95    98     1
  100    99     1
   99   101     1
  101   102     1
  101   103     1
  103   104     1
  105   103     1
  115   103     1
  105   106     1
  107   105     1
  111   105     1
  107   108     1
  107   109     1
  107   110     1
  111   112     1
  111   113     1
  111   114     1
  116   115     1
  115   117     1
  117   118     1
  117   119     1
  119   120     1
  121   119     1
  134   119     1
  121   122     1
  123   121     1
  127   121     1
  123   124     1
  123   125     1
  123   126     1
  127   128     1
  127   129     1
  130   127     1
  130   131     1
  130   132     1
  130   133     1
  135   134     1
  134   136     1
  136   137     1
  136   138     1
  138   139     1
  140   138     1
  156   138     1
  140   141     1
  140   142     1
  143   140     1
  143   144     1
  143   145     1
  146   143     1
  146   147     1
  146   148     1
  149   146     1
  149   150     1
  149   151     1
  152   149     1
  152   153     1
  152   154     1
  152   155     1
  157   156     1
  156   158     1
  158   159     1
  158   160     1
  160   161     1
  162   160     1
  172   160     1
  162   163     1
  164   162     1
  168   162     1
  164   165     1
  164   166     1
  164   167     1
  168   169     1
  168   170     1
  168   171     1
  173   172     1
  172   174     1
  174   175     1
  174   176     1
  176   177     1
  178   176     1
  183   176     1
  178   179     1
  178   180     1
  181   178     1
  181   182     1
  184   183     1
  183   185     1
  185   186     1
  185   187     1
  187   188     1
  189   187     1
  198   187     1
  189   190     1
  189   191     1
  192   189     1
  192   193     1
  192   194     1
  195   192     1
  195   196     1
  197   195     1
  199   198     1
  198   200     1
  200   201     1
  200   202     1
  202   203     1
  204   202     1
  218   202     1
  204   205     1
  204   206     1
  207   204     1
  208   207     1
  214   207     1
  208   209     1
  210   208     1
  210   211     1
  212   210     1
  212   213     1
  212   216     1
  214   215     1
  216   214     1
  216   217     1
  219   218     1
  218   220     1
  220   221     1
  220   222     1
  222   223     1
  224   222     1
  235   222     1
  224   225     1
  224   226     1
  227   224     1
  227   228     1
  227   229     1
  230   227     1
  230   231     1
  232   230     1
  232   233     1
  232   234     1
  236   235     1
  235   237     1
  237   238     1
  237   239     1
  239   240     1
  241   239     1
  255   239     1
  241   242     1
  241   243     1
  244   241     1
  245   244     1
  251   244     1
  245   246     1
  247   245     1
  247   248     1
  249   247     1
  249   250     1
  249   253     1
  251   252     1
  253   251     1
  253   254     1
  256   255     1
  255   257     1
  257   258     1
  257   259     1
  259   260     1
  261   259     1
  266   259     1
  261   262     1
  261   263     1
  264   261     1
  264   265     1
  267   266     1
  266   268     1
  268   269     1
  268   270     1
  270   271     1
  272   270     1
  280   270     1
  272   273     1
  272   274     1
  275   272     1
  275   276     1
  277   275     1
  277   278     1
  277   279     1
  280   281     1
  280   282     1
  282   283     1
  282   284     1
  284   285     1
  286   284     1
  292   284     1
  286   287     1
  286   288     1
  289   286     1
  289   290     1
  291   289     1
  293   292     1
  292   294     1
  294   295     1
  294   298     1
  296   295     1
  297   295     1
  303   295     1
  299   298     1
  298   300     1
  306   298     1
  301   300     1
  302   300     1
  300   303     1
  304   303     1
  305   303     1
  307   306     1
  306   308     1
  308   309     1
  308   310     1
  310   311     1
  312   310     1
  326   310     1
  312   313     1
  312   314     1
  315   312     1
  316   315     1
  322   315     1
  316   317     1
  318   316     1
  318   319     1
  320   318     1
  320   321     1
  320   324     1
  322   323     1
  324   322     1
  324   325     1
  327   326     1
  326   328     1
  328   329     1
  328   330     1
  330   331     1
  332   330     1
  345   330     1
  332   333     1
  332   334     1
  335   332     1
  335   336     1
  337   335     1
  341   335     1
  337   338     1
  337   339     1
  337   340     1
  341   342     1
  341   343     1
  341   344     1
  346   345     1
  345   347     1
  347   348     1
  347   349     1
  349   350     1
  349   351     1
  352   349     1
  353   352     1
  352   354     1
  354   355     1
  354   356     1
  356   357     1
  358   356     1
  368   356     1
  358   359     1
  360   358     1
  364   358     1
  360   361     1
  360   362     1
  360   363     1
  364   365     1
  364   366     1
  364   367     1
  369   368     1
  368   370     1
  370   371     1
  370   372     1
  372   373     1
  374   372     1
  389   372     1
  374   375     1
  374   376     1
  377   374     1
  378   377     1
  385   377     1
  378   379     1
  380   378     1
  380   381     1
  380   382     1
  383   382     1
  382   387     1
  383   384     1
  385   386     1
  387   385     1
  387   388     1
  390   389     1
  389   391     1
  391   392     1
  391   393     1
  393   394     1
  395   393     1
  410   393     1
  395   396     1
  395   397     1
  398   395     1
  399   398     1
  406   398     1
  399   400     1
  401   399     1
  401   402     1
  401   403     1
  404   403     1
  403   408     1
  404   405     1
  406   407     1
  408   406     1
  408   409     1
  411   410     1
  410   412     1
  412   413     1
  412   414     1
  414   415     1
  416   414     1
  427   414     1
  416   417     1
  416   418     1
  421   416     1
  419   420     1
  419   421     1
  422   419     1
  421   425     1
  422   423     1
  422   424     1
  424   425     1
  425   426     1
  428   427     1
  427   429     1
  429   430     1
  429   431     1
  431   432     1
  433   431     1
  449   431     1
  433   434     1
  433   435     1
  436   433     1
  436   437     1
  436   438     1
  439   436     1
  439   440     1
  439   441     1
  442   439     1
  442   443     1
  442   444     1
  445   442     1
  445   446     1
  445   447     1
  445   448     1
  450   449     1
  449   451     1
  451   452     1
  451   453     1
  453   454     1
  455   453     1
  463   453     1
  455   456     1
  455   457     1
  458   455     1
  458   459     1
  460   458     1
  460   461     1
  460   462     1
  463   464     1
  463   465     1
  465   466     1
  465   467     1
  467   468     1
  469   467     1
  476   467     1
  469   470     1
  469   471     1
  472   469     1
  472   473     1
  474   472     1
  474   475     1
  675   474     1
  476   477     1
  476   478     1
  478   479     1
  478   480     1
  480   481     1
  482   480     1
  498   480     1
  482   483     1
  482   484     1
  485   482     1
  485   486     1
  485   487     1
  488   485     1
  488   489     1
  488   490     1
  491   488     1
  491   492     1
  491   493     1
  494   491     1
  494   495     1
  494   496     1
  494   497     1
  499   498     1
  498   500     1
  500   501     1
  500   502     1
  502   503     1
  504   502     1
  509   502     1
  504   505     1
  504   506     1
  507   504     1
  507   508     1
  510   509     1
  509   511     1
  511   512     1
  511   513     1
  513   514     1
  515   513     1
  533   513     1
  515   516     1
  515   517     1
  518   515     1
  519   518     1
  524   518     1
  519   520     1
  521   519     1
  521   522     1
  521   523     1
  523   524     1
  529   523     1
  524   525     1
  525   526     1
  527   525     1
  527   528     1
  527   531     1
  529   530     1
  531   529     1
  531   532     1
  534   533     1
  533   535     1
  535   536     1
  535   537     1
  537   538     1
  539   537     1
  550   537     1
  539   540     1
  539   541     1
  542   539     1
  542   543     1
  542   544     1
  545   542     1
  546   545     1
  546   547     1
  546   548     1
  546   549     1
  551   550     1
  550   552     1
  552   553     1
  552   554     1
  554   555     1
  556   554     1
  565   554     1
  556   557     1
  556   558     1
  559   556     1
  559   560     1
  559   561     1
  562   559     1
  562   563     1
  564   562     1
  566   565     1
  565   567     1
  567   568     1
  567   569     1
  569   570     1
  571   569     1
  576   569     1
  571   572     1
  571   573     1
  574   571     1
  574   575     1
  577   576     1
  576   578     1
  578   579     1
  578   580     1
  580   581     1
  582   580     1
  591   580     1
  582   583     1
  582   584     1
  585   582     1
  585   586     1
  585   587     1
  588   585     1
  588   589     1
  590   588     1
  592   591     1
  591   593     1
  593   594     1
  593   595     1
  595   596     1
  597   595     1
  611   595     1
  597   598     1
  597   599     1
  600   597     1
  601   600     1
  607   600     1
  601   602     1
  603   601     1
  603   604     1
  605   603     1
  605   606     1
  605   609     1
  607   608     1
  609   607     1
  609   610     1
  612   611     1
  611   613     1
  613   614     1
  613   615     1
  615   616     1
  617   615     1
  635   615     1
  617   618     1
  617   619     1
  620   617     1
  620   621     1
  620   622     1
  623   620     1
  623   624     1
  623   625     1
  626   623     1
  626   627     1
  628   626     1
  628   629     1
  632   628     1
  629   630     1
  629   631     1
  632   633     1
  632   634     1
  636   635     1
  635   637     1
  637   638     1
  637   639     1
  639   640     1
  641   639     1
  651   639     1
  641   642     1
  643   641     1
  647   641     1
  643   644     1
  643   645     1
  643   646     1
  647   648     1
  647   649     1
  647   650     1
  652   651     1
  651   653     1
  653   654     1
  653   655     1
  655   656     1
  657   655     1
  672   655     1
  657   658     1
  657   659     1
  660   657     1
  661   660     1
  668   660     1
  661   662     1
  663   661     1
  663   664     1
  663   665     1
  666   665     1
  665   670     1
  666   667     1
  668   669     1
  670   668     1
  670   671     1
  672   673     1
  672   674     1
  675   676     1
  675   679     1
  675   680     1
  677   678     1
  677   679     1
  694   677     1
  677   697     1
  680   681     1
  680   682     1
  680   690     1
  682   683     1
  682   684     1
  684   685     1
  684   686     1
  686   687     1
  686   688     1
  686   689     1
  690   691     1
  690   692     1
  690   694     1
  692   693     1
  694   695     1
  694   696     1
  696   722     1
  697   698     1
  697   699     1
  697   700     1
  700   701     1
  701   702     1
  701   705     1
  701   706     1
  703   704     1
  703   705     1
  714   703     1
  703   718     1
  706   707     1
  706   708     1
  706   710     1
  708   709     1
  710   711     1
  710   712     1
  710   714     1
  712   713     1
  714   715     1
  714   716     1
  716   717     1
  718   719     1
  718   720     1
  718   721     1
  722   723     1
  722   726     1
  722   727     1
  724   725     1
  724   726     1
  741   724     1
  724   744     1
  727   728     1
  727   729     1
  727   737     1
  729   730     1
  729   731     1
  731   732     1
  731   733     1
  733   734     1
  733   735     1
  733   736     1
  737   738     1
  737   739     1
  737   741     1
  739   740     1
  741   742     1
  741   743     1
  743   749     1
  744   745     1
  744   746     1
  744   747     1
  747   748     1
  749   750     1
  749   753     1
  749   754     1
  751   752     1
  751   753     1
  761   751     1
  751   765     1
  754   755     1
  754   756     1
  754   758     1
  756   757     1
  758   759     1
  758   760     1
  758   761     1
  760   818     1
  761   762     1
  761   763     1
  763   764     1
  765   766     1
  765   767     1
  765   768     1
  768   769     1
  769   770     1
  769   773     1
  769   774     1
  771   772     1
  771   773     1
  781   771     1
  771   785     1
  774   775     1
  774   776     1
  774   777     1
  776   790     1
  777   778     1
  777   779     1
  777   781     1
  779   780     1
  781   782     1
  781   783     1
  783   784     1
  785   786     1
  785   787     1
  785   788     1
  788   789     1
  790   791     1
  790   794     1
  790   795     1
  792   793     1
  792   794     1
  809   792     1
  792   813     1
  795   796     1
  795   797     1
  795   805     1
  797   798     1
  797   799     1
  799   800     1
  799   801     1
  801   802     1
  801   803     1
  801   804     1
  805   806     1
  805   807     1
  805   809     1
  807   808     1
  809   810     1
  809   811     1
  811   812     1
  813   814     1
  813   815     1
  813   816     1
  816   817     1
  818   819     1
  818   822     1
  818   823     1
  820   821     1
  820   822     1
  830   820     1
  820   834     1
  823   824     1
  823   825     1
  823   826     1
  825   839     1
  826   827     1
  826   828     1
  826   830     1
  828   829     1
  830   831     1
  830   832     1
  832   833     1
  834   835     1
  834   836     1
  834   837     1
  837   838     1
  839   840     1
  839   843     1
  839   844     1
  841   842     1
  841   843     1
  858   841     1
  841   862     1
  844   845     1
  844   846     1
  844   854     1
  846   847     1
  846   848     1
  848   849     1
  848   850     1
  850   851     1
  850   852     1
  850   853     1
  854   855     1
  854   856     1
  854   858     1
  856   857     1
  858   859     1
  858   860     1
  860   861     1
  862   863     1
  862   864     1
  862   865     1
  865   866     1

[ pairs ]
; ai	aj	funct	c6	c12 or
; ai	aj	funct	fudgeQQ	q1	q2	c6	c12
    1     8     1
    1     9     1
    1    13     1
    1    18     1
    1    19     1
    2     6     1
    2     7     1
    2    17     1
    3     6     1
    3     7     1
    3    17     1
    4     6     1
    4     7     1
    4    17     1
    5    10     1
    5    11     1
    5    12     1
    5    14     1
    5    15     1
    5    16     1
    5    20     1
    5    21     1
    6     8     1
    6     9     1
    6    13     1
    6    18     1
    6    19     1
    7    18     1
    7    19     1
    8    10     1
    8    11     1
    8    12     1
    8    14     1
    8    15     1
    8    16     1
    8    17     1
    9    14     1
    9    15     1
    9    16     1
    9    17     1
   10    13     1
   11    13     1
   12    13     1
   13    17     1
   17    22     1
   17    23     1
   17    31     1
   18    20     1
   18    21     1
   19    24     1
   19    25     1
   19    26     1
   19    32     1
   19    33     1
   20    22     1
   20    23     1
   20    31     1
   21    27     1
   21    28     1
   21    34     1
   21    35     1
   22    24     1
   22    25     1
   22    26     1
   22    32     1
   22    33     1
   23    29     1
   23    30     1
   23    32     1
   23    33     1
   24    27     1
   24    28     1
   24    31     1
   25    27     1
   25    28     1
   25    31     1
   26    31     1
   27    29     1
   27    30     1
   31    36     1
   31    37     1
   31    45     1
   32    34     1
   32    35     1
   33    38     1
   33    39     1
   33    40     1
   33    46     1
   33    47     1
   34    36     1
   34    37     1
   34    45     1
   35    41     1
   35    42     1
   35    48     1
   35    49     1
   36    38     1
   36    39     1
   36    40     1
   36    46     1
   36    47     1
   37    43     1
   37    44     1
   37    46     1
   37    47     1
   38    41     1
   38    42     1
   38    45     1
   39    41     1
   39    42     1
   39    45     1
   40    45     1
   41    43     1
   41    44     1
   45    50     1
   45    51     1
   45    55     1
   46    48     1
   46    49     1
   47    52     1
   47    53     1
   47    54     1
   47    56     1
   47    57     1
   48    50     1
   48    51     1
   48    55     1
   49    58     1
   49    59     1
   50    52     1
   50    53     1
   50    54     1
   50    56     1
   50    57     1
   51    56     1
   51    57     1
   52    55     1
   53    55     1
   54    55     1
   55    60     1
   55    61     1
   55    69     1
   56    58     1
   56    59     1
   57    62     1
   57    63     1
   57    65     1
   57    70     1
   57    71     1
   58    60     1
   58    61     1
   58    69     1
   59    64     1
   59    66     1
   59    67     1
   59    68     1
   59    72     1
   59    73     1
   60    62     1
   60    63     1
   60    65     1
   60    70     1
   60    71     1
   61    70     1
   61    71     1
   62    64     1
   62    66     1
   62    67     1
   62    68     1
   62    69     1
   63    66     1
   63    67     1
   63    68     1
   63    69     1
   64    65     1
   65    69     1
   69    74     1
   69    75     1
   69    83     1
   70    72     1
   70    73     1
   71    76     1
   71    77     1
   71    78     1
   71    84     1
   71    85     1
   72    74     1
   72    75     1
   72    83     1
   73    79     1
   73    80     1
   73    86     1
   73    87     1
   74    76     1
   74    77     1
   74    78     1
   74    84     1
   74    85     1
   75    81     1
   75    82     1
   75    84     1
   75    85     1
   76    79     1
   76    80     1
   76    83     1
   77    79     1
   77    80     1
   77    83     1
   78    83     1
   79    81     1
   79    82     1
   83    88     1
   83    89     1
   83    99     1
   84    86     1
   84    87     1
   85    90     1
   85    91     1
   85    95     1
   85   100     1
   85   101     1
   86    88     1
   86    89     1
   86    99     1
   87    92     1
   87    93     1
   87    94     1
   87    96     1
   87    97     1
   87    98     1
   87   102     1
   87   103     1
   88    90     1
   88    91     1
   88    95     1
   88   100     1
   88   101     1
   89   100     1
   89   101     1
   90    92     1
   90    93     1
   90    94     1
   90    96     1
   90    97     1
   90    98     1
   90    99     1
   91    96     1
   91    97     1
   91    98     1
   91    99     1
   92    95     1
   93    95     1
   94    95     1
   95    99     1
   99   104     1
   99   105     1
   99   115     1
  100   102     1
  100   103     1
  101   106     1
  101   107     1
  101   111     1
  101   116     1
  101   117     1
  102   104     1
  102   105     1
  102   115     1
  103   108     1
  103   109     1
  103   110     1
  103   112     1
  103   113     1
  103   114     1
  103   118     1
  103   119     1
  104   106     1
  104   107     1
  104   111     1
  104   116     1
  104   117     1
  105   116     1
  105   117     1
  106   108     1
  106   109     1
  106   110     1
  106   112     1
  106   113     1
  106   114     1
  106   115     1
  107   112     1
  107   113     1
  107   114     1
  107   115     1
  108   111     1
  109   111     1
  110   111     1
  111   115     1
  115   120     1
  115   121     1
  115   134     1
  116   118     1
  116   119     1
  117   122     1
  117   123     1
  117   127     1
  117   135     1
  117   136     1
  118   120     1
  118   121     1
  118   134     1
  119   124     1
  119   125     1
  119   126     1
  119   128     1
  119   129     1
  119   130     1
  119   137     1
  119   138     1
  120   122     1
  120   123     1
  120   127     1
  120   135     1
  120   136     1
  121   131     1
  121   132     1
  121   133     1
  121   135     1
  121   136     1
  122   124     1
  122   125     1
  122   126     1
  122   128     1
  122   129     1
  122   130     1
  122   134     1
  123   128     1
  123   129     1
  123   130     1
  123   134     1
  124   127     1
  125   127     1
  126   127     1
  127   134     1
  128   131     1
  128   132     1
  128   133     1
  129   131     1
  129   132     1
  129   133     1
  134   139     1
  134   140     1
  134   156     1
  135   137     1
  135   138     1
  136   141     1
  136   142     1
  136   143     1
  136   157     1
  136   158     1
  137   139     1
  137   140     1
  137   156     1
  138   144     1
  138   145     1
  138   146     1
  138   159     1
  138   160     1
  139   141     1
  139   142     1
  139   143     1
  139   157     1
  139   158     1
  140   147     1
  140   148     1
  140   149     1
  140   157     1
  140   158     1
  141   144     1
  141   145     1
  141   146     1
  141   156     1
  142   144     1
  142   145     1
  142   146     1
  142   156     1
  143   150     1
  143   151     1
  143   152     1
  143   156     1
  144   147     1
  144   148     1
  144   149     1
  145   147     1
  145   148     1
  145   149     1
  146   153     1
  146   154     1
  146   155     1
  147   150     1
  147   151     1
  147   152     1
  148   150     1
  148   151     1
  148   152     1
  150   153     1
  150   154     1
  150   155     1
  151   153     1
  151   154     1
  151   155     1
  156   161     1
  156   162     1
  156   172     1
  157   159     1
  157   160     1
  158   163     1
  158   164     1
  158   168     1
  158   173     1
  158   174     1
  159   161     1
  159   162     1
  159   172     1
  160   165     1
  160   166     1
  160   167     1
  160   169     1
  160   170     1
  160   171     1
  160   175     1
  160   176     1
  161   163     1
  161   164     1
  161   168     1
  161   173     1
  161   174     1
  162   173     1
  162   174     1
  163   165     1
  163   166     1
  163   167     1
  163   169     1
  163   170     1
  163   171     1
  163   172     1
  164   169     1
  164   170     1
  164   171     1
  164   172     1
  165   168     1
  166   168     1
  167   168     1
  168   172     1
  172   177     1
  172   178     1
  172   183     1
  173   175     1
  173   176     1
  174   179     1
  174   180     1
  174   181     1
  174   184     1
  174   185     1
  175   177     1
  175   178     1
  175   183     1
  176   182     1
  176   186     1
  176   187     1
  177   179     1
  177   180     1
  177   181     1
  177   184     1
  177   185     1
  178   184     1
  178   185     1
  179   182     1
  179   183     1
  180   182     1
  180   183     1
  181   183     1
  183   188     1
  183   189     1
  183   198     1
  184   186     1
  184   187     1
  185   190     1
  185   191     1
  185   192     1
  185   199     1
  185   200     1
  186   188     1
  186   189     1
  186   198     1
  187   193     1
  187   194     1
  187   195     1
  187   201     1
  187   202     1
  188   190     1
  188   191     1
  188   192     1
  188   199     1
  188   200     1
  189   196     1
  189   197     1
  189   199     1
  189   200     1
  190   193     1
  190   194     1
  190   195     1
  190   198     1
  191   193     1
  191   194     1
  191   195     1
  191   198     1
  192   198     1
  193   196     1
  193   197     1
  194   196     1
  194   197     1
  198   203     1
  198   204     1
  198   218     1
  199   201     1
  199   202     1
  200   205     1
  200   206     1
  200   207     1
  200   219     1
  200   220     1
  201   203     1
  201   204     1
  201   218     1
  202   208     1
  202   214     1
  202   221     1
  202   222     1
  203   205     1
  203   206     1
  203   207     1
  203   219     1
  203   220     1
  204   209     1
  204   210     1
  204   215     1
  204   216     1
  204   219     1
  204   220     1
  205   208     1
  205   214     1
  205   218     1
  206   208     1
  206   214     1
  206   218     1
  207   211     1
  207   212     1
  207   217     1
  207   218     1
  208   213     1
  208   215     1
  208   216     1
  209   211     1
  209   212     1
  209   214     1
  210   214     1
  210   217     1
  211   213     1
  211   216     1
  212   215     1
  213   214     1
  213   217     1
  215   217     1
  218   223     1
  218   224     1
  218   235     1
  219   221     1
  219   222     1
  220   225     1
  220   226     1
  220   227     1
  220   236     1
  220   237     1
  221   223     1
  221   224     1
  221   235     1
  222   228     1
  222   229     1
  222   230     1
  222   238     1
  222   239     1
  223   225     1
  223   226     1
  223   227     1
  223   236     1
  223   237     1
  224   231     1
  224   232     1
  224   236     1
  224   237     1
  225   228     1
  225   229     1
  225   230     1
  225   235     1
  226   228     1
  226   229     1
  226   230     1
  226   235     1
  227   233     1
  227   234     1
  227   235     1
  228   231     1
  228   232     1
  229   231     1
  229   232     1
  231   233     1
  231   234     1
  235   240     1
  235   241     1
  235   255     1
  236   238     1
  236   239     1
  237   242     1
  237   243     1
  237   244     1
  237   256     1
  237   257     1
  238   240     1
  238   241     1
  238   255     1
  239   245     1
  239   251     1
  239   258     1
  239   259     1
  240   242     1
  240   243     1
  240   244     1
  240   256     1
  240   257     1
  241   246     1
  241   247     1
  241   252     1
  241   253     1
  241   256     1
  241   257     1
  242   245     1
  242   251     1
  242   255     1
  243   245     1
  243   251     1
  243   255     1
  244   248     1
  244   249     1
  244   254     1
  244   255     1
  245   250     1
  245   252     1
  245   253     1
  246   248     1
  246   249     1
  246   251     1
  247   251     1
  247   254     1
  248   250     1
  248   253     1
  249   252     1
  250   251     1
  250   254     1
  252   254     1
  255   260     1
  255   261     1
  255   266     1
  256   258     1
  256   259     1
  257   262     1
  257   263     1
  257   264     1
  257   267     1
  257   268     1
  258   260     1
  258   261     1
  258   266     1
  259   265     1
  259   269     1
  259   270     1
  260   262     1
  260   263     1
  260   264     1
  260   267     1
  260   268     1
  261   267     1
  261   268     1
  262   265     1
  262   266     1
  263   265     1
  263   266     1
  264   266     1
  266   271     1
  266   272     1
  266   280     1
  267   269     1
  267   270     1
  268   273     1
  268   274     1
  268   275     1
  268   281     1
  268   282     1
  269   271     1
  269   272     1
  269   280     1
  270   276     1
  270   277     1
  270   283     1
  270   284     1
  271   273     1
  271   274     1
  271   275     1
  271   281     1
  271   282     1
  272   278     1
  272   279     1
  272   281     1
  272   282     1
  273   276     1
  273   277     1
  273   280     1
  274   276     1
  274   277     1
  274   280     1
  275   280     1
  276   278     1
  276   279     1
  280   285     1
  280   286     1
  280   292     1
  281   283     1
  281   284     1
  282   287     1
  282   288     1
  282   289     1
  282   293     1
  282   294     1
  283   285     1
  283   286     1
  283   292     1
  284   290     1
  284   291     1
  284   295     1
  284   298     1
  285   287     1
  285   288     1
  285   289     1
  285   293     1
  285   294     1
  286   293     1
  286   294     1
  287   290     1
  287   291     1
  287   292     1
  288   290     1
  288   291     1
  288   292     1
  289   292     1
  292   296     1
  292   297     1
  292   299     1
  292   300     1
  292   303     1
  292   306     1
  293   295     1
  293   298     1
  294   301     1
  294   302     1
  294   304     1
  294   305     1
  294   307     1
  294   308     1
  295   299     1
  295   301     1
  295   302     1
  295   306     1
  296   298     1
  296   300     1
  296   304     1
  296   305     1
  297   298     1
  297   300     1
  297   304     1
  297   305     1
  298   304     1
  298   305     1
  298   309     1
  298   310     1
  299   301     1
  299   302     1
  299   303     1
  299   307     1
  299   308     1
  300   307     1
  300   308     1
  301   304     1
  301   305     1
  301   306     1
  302   304     1
  302   305     1
  302   306     1
  303   306     1
  306   311     1
  306   312     1
  306   326     1
  307   309     1
  307   310     1
  308   313     1
  308   314     1
  308   315     1
  308   327     1
  308   328     1
  309   311     1
  309   312     1
  309   326     1
  310   316     1
  310   322     1
  310   329     1
  310   330     1
  311   313     1
  311   314     1
  311   315     1
  311   327     1
  311   328     1
  312   317     1
  312   318     1
  312   323     1
  312   324     1
  312   327     1
  312   328     1
  313   316     1
  313   322     1
  313   326     1
  314   316     1
  314   322     1
  314   326     1
  315   319     1
  315   320     1
  315   325     1
  315   326     1
  316   321     1
  316   323     1
  316   324     1
  317   319     1
  317   320     1
  317   322     1
  318   322     1
  318   325     1
  319   321     1
  319   324     1
  320   323     1
  321   322     1
  321   325     1
  323   325     1
  326   331     1
  326   332     1
  326   345     1
  327   329     1
  327   330     1
  328   333     1
  328   334     1
  328   335     1
  328   346     1
  328   347     1
  329   331     1
  329   332     1
  329   345     1
  330   336     1
  330   337     1
  330   341     1
  330   348     1
  330   349     1
  331   333     1
  331   334     1
  331   335     1
  331   346     1
  331   347     1
  332   338     1
  332   339     1
  332   340     1
  332   342     1
  332   343     1
  332   344     1
  332   346     1
  332   347     1
  333   336     1
  333   337     1
  333   341     1
  333   345     1
  334   336     1
  334   337     1
  334   341     1
  334   345     1
  335   345     1
  336   338     1
  336   339     1
  336   340     1
  336   342     1
  336   343     1
  336   344     1
  337   342     1
  337   343     1
  337   344     1
  338   341     1
  339   341     1
  340   341     1
  345   350     1
  345   351     1
  345   352     1
  346   348     1
  346   349     1
  347   353     1
  347   354     1
  348   350     1
  348   351     1
  348   352     1
  349   355     1
  349   356     1
  350   353     1
  350   354     1
  351   353     1
  351   354     1
  352   357     1
  352   358     1
  352   368     1
  353   355     1
  353   356     1
  354   359     1
  354   360     1
  354   364     1
  354   369     1
  354   370     1
  355   357     1
  355   358     1
  355   368     1
  356   361     1
  356   362     1
  356   363     1
  356   365     1
  356   366     1
  356   367     1
  356   371     1
  356   372     1
  357   359     1
  357   360     1
  357   364     1
  357   369     1
  357   370     1
  358   369     1
  358   370     1
  359   361     1
  359   362     1
  359   363     1
  359   365     1
  359   366     1
  359   367     1
  359   368     1
  360   365     1
  360   366     1
  360   367     1
  360   368     1
  361   364     1
  362   364     1
  363   364     1
  364   368     1
  368   373     1
  368   374     1
  368   389     1
  369   371     1
  369   372     1
  370   375     1
  370   376     1
  370   377     1
  370   390     1
  370   391     1
  371   373     1
  371   374     1
  371   389     1
  372   378     1
  372   385     1
  372   392     1
  372   393     1
  373   375     1
  373   376     1
  373   377     1
  373   390     1
  373   391     1
  374   379     1
  374   380     1
  374   386     1
  374   387     1
  374   390     1
  374   391     1
  375   378     1
  375   385     1
  375   389     1
  376   378     1
  376   385     1
  376   389     1
  377   381     1
  377   382     1
  377   388     1
  377   389     1
  378   383     1
  378   386     1
  378   387     1
  379   381     1
  379   382     1
  379   385     1
  380   384     1
  380   385     1
  380   388     1
  381   383     1
  381   387     1
  382   386     1
  383   385     1
  383   388     1
  384   387     1
  386   388     1
  389   394     1
  389   395     1
  389   410     1
  390   392     1
  390   393     1
  391   396     1
  391   397     1
  391   398     1
  391   411     1
  391   412     1
  392   394     1
  392   395     1
  392   410     1
  393   399     1
  393   406     1
  393   413     1
  393   414     1
  394   396     1
  394   397     1
  394   398     1
  394   411     1
  394   412     1
  395   400     1
  395   401     1
  395   407     1
  395   408     1
  395   411     1
  395   412     1
  396   399     1
  396   406     1
  396   410     1
  397   399     1
  397   406     1
  397   410     1
  398   402     1
  398   403     1
  398   409     1
  398   410     1
  399   404     1
  399   407     1
  399   408     1
  400   402     1
  400   403     1
  400   406     1
  401   405     1
  401   406     1
  401   409     1
  402   404     1
  402   408     1
  403   407     1
  404   406     1
  404   409     1
  405   408     1
  407   409     1
  410   415     1
  410   416     1
  410   427     1
  411   413     1
  411   414     1
  412   417     1
  412   418     1
  412   421     1
  412   428     1
  412   429     1
  413   415     1
  413   416     1
  413   427     1
  414   419     1
  414   425     1
  414   430     1
  414   431     1
  415   417     1
  415   418     1
  415   421     1
  415   428     1
  415   429     1
  416   420     1
  416   422     1
  416   424     1
  416   426     1
  416   428     1
  416   429     1
  417   419     1
  417   425     1
  417   427     1
  418   419     1
  418   425     1
  418   427     1
  419   426     1
  420   423     1
  420   424     1
  420   425     1
  421   423     1
  421   427     1
  422   426     1
  423   425     1
  427   432     1
  427   433     1
  427   449     1
  428   430     1
  428   431     1
  429   434     1
  429   435     1
  429   436     1
  429   450     1
  429   451     1
  430   432     1
  430   433     1
  430   449     1
  431   437     1
  431   438     1
  431   439     1
  431   452     1
  431   453     1
  432   434     1
  432   435     1
  432   436     1
  432   450     1
  432   451     1
  433   440     1
  433   441     1
  433   442     1
  433   450     1
  433   451     1
  434   437     1
  434   438     1
  434   439     1
  434   449     1
  435   437     1
  435   438     1
  435   439     1
  435   449     1
  436   443     1
  436   444     1
  436   445     1
  436   449     1
  437   440     1
  437   441     1
  437   442     1
  438   440     1
  438   441     1
  438   442     1
  439   446     1
  439   447     1
  439   448     1
  440   443     1
  440   444     1
  440   445     1
  441   443     1
  441   444     1
  441   445     1
  443   446     1
  443   447     1
  443   448     1
  444   446     1
  444   447     1
  444   448     1
  449   454     1
  449   455     1
  449   463     1
  450   452     1
  450   453     1
  451   456     1
  451   457     1
  451   458     1
  451   464     1
  451   465     1
  452   454     1
  452   455     1
  452   463     1
  453   459     1
  453   460     1
  453   466     1
  453   467     1
  454   456     1
  454   457     1
  454   458     1
  454   464     1
  454   465     1
  455   461     1
  455   462     1
  455   464     1
  455   465     1
  456   459     1
  456   460     1
  456   463     1
  457   459     1
  457   460     1
  457   463     1
  458   463     1
  459   461     1
  459   462     1
  463   468     1
  463   469     1
  463   476     1
  464   466     1
  464   467     1
  465   470     1
  465   471     1
  465   472     1
  465   477     1
  465   478     1
  466   468     1
  466   469     1
  466   476     1
  467   473     1
  467   474     1
  467   479     1
  467   480     1
  468   470     1
  468   471     1
  468   472     1
  468   477     1
  468   478     1
  469   475     1
  469   477     1
  469   478     1
  469   675     1
  470   473     1
  470   474     1
  470   476     1
  471   473     1
  471   474     1
  471   476     1
  472   476     1
  472   676     1
  472   679     1
  472   680     1
  473   475     1
  473   675     1
  474   677     1
  474   681     1
  474   682     1
  474   690     1
  475   676     1
  475   679     1
  475   680     1
  476   481     1
  476   482     1
  476   498     1
  477   479     1
  477   480     1
  478   483     1
  478   484     1
  478   485     1
  478   499     1
  478   500     1
  479   481     1
  479   482     1
  479   498     1
  480   486     1
  480   487     1
  480   488     1
  480   501     1
  480   502     1
  481   483     1
  481   484     1
  481   485     1
  481   499     1
  481   500     1
  482   489     1
  482   490     1
  482   491     1
  482   499     1
  482   500     1
  483   486     1
  483   487     1
  483   488     1
  483   498     1
  484   486     1
  484   487     1
  484   488     1
  484   498     1
  485   492     1
  485   493     1
  485   494     1
  485   498     1
  486   489     1
  486   490     1
  486   491     1
  487   489     1
  487   490     1
  487   491     1
  488   495     1
  488   496     1
  488   497     1
  489   492     1
  489   493     1
  489   494     1
  490   492     1
  490   493     1
  490   494     1
  492   495     1
  492   496     1
  492   497     1
  493   495     1
  493   496     1
  493   497     1
  498   503     1
  498   504     1
  498   509     1
  499   501     1
  499   502     1
  500   505     1
  500   506     1
  500   507     1
  500   510     1
  500   511     1
  501   503     1
  501   504     1
  501   509     1
  502   508     1
  502   512     1
  502   513     1
  503   505     1
  503   506     1
  503   507     1
  503   510     1
  503   511     1
  504   510     1
  504   511     1
  505   508     1
  505   509     1
  506   508     1
  506   509     1
  507   509     1
  509   514     1
  509   515     1
  509   533     1
  510   512     1
  510   513     1
  511   516     1
  511   517     1
  511   518     1
  511   534     1
  511   535     1
  512   514     1
  512   515     1
  512   533     1
  513   519     1
  513   524     1
  513   536     1
  513   537     1
  514   516     1
  514   517     1
  514   518     1
  514   534     1
  514   535     1
  515   520     1
  515   521     1
  515   523     1
  515   525     1
  515   534     1
  515   535     1
  516   519     1
  516   524     1
  516   533     1
  517   519     1
  517   524     1
  517   533     1
  518   522     1
  518   526     1
  518   527     1
  518   529     1
  518   533     1
  519   525     1
  519   529     1
  520   522     1
  520   523     1
  520   524     1
  521   525     1
  521   530     1
  521   531     1
  522   524     1
  522   529     1
  523   526     1
  523   527     1
  523   532     1
  524   528     1
  524   530     1
  524   531     1
  525   529     1
  525   532     1
  526   528     1
  526   531     1
  527   530     1
  528   529     1
  528   532     1
  530   532     1
  533   538     1
  533   539     1
  533   550     1
  534   536     1
  534   537     1
  535   540     1
  535   541     1
  535   542     1
  535   551     1
  535   552     1
  536   538     1
  536   539     1
  536   550     1
  537   543     1
  537   544     1
  537   545     1
  537   553     1
  537   554     1
  538   540     1
  538   541     1
  538   542     1
  538   551     1
  538   552     1
  539   546     1
  539   551     1
  539   552     1
  540   543     1
  540   544     1
  540   545     1
  540   550     1
  541   543     1
  541   544     1
  541   545     1
  541   550     1
  542   547     1
  542   548     1
  542   549     1
  542   550     1
  543   546     1
  544   546     1
  550   555     1
  550   556     1
  550   565     1
  551   553     1
  551   554     1
  552   557     1
  552   558     1
  552   559     1
  552   566     1
  552   567     1
  553   555     1
  553   556     1
  553   565     1
  554   560     1
  554   561     1
  554   562     1
  554   568     1
  554   569     1
  555   557     1
  555   558     1
  555   559     1
  555   566     1
  555   567     1
  556   563     1
  556   564     1
  556   566     1
  556   567     1
  557   560     1
  557   561     1
  557   562     1
  557   565     1
  558   560     1
  558   561     1
  558   562     1
  558   565     1
  559   565     1
  560   563     1
  560   564     1
  561   563     1
  561   564     1
  565   570     1
  565   571     1
  565   576     1
  566   568     1
  566   569     1
  567   572     1
  567   573     1
  567   574     1
  567   577     1
  567   578     1
  568   570     1
  568   571     1
  568   576     1
  569   575     1
  569   579     1
  569   580     1
  570   572     1
  570   573     1
  570   574     1
  570   577     1
  570   578     1
  571   577     1
  571   578     1
  572   575     1
  572   576     1
  573   575     1
  573   576     1
  574   576     1
  576   581     1
  576   582     1
  576   591     1
  577   579     1
  577   580     1
  578   583     1
  578   584     1
  578   585     1
  578   592     1
  578   593     1
  579   581     1
  579   582     1
  579   591     1
  580   586     1
  580   587     1
  580   588     1
  580   594     1
  580   595     1
  581   583     1
  581   584     1
  581   585     1
  581   592     1
  581   593     1
  582   589     1
  582   590     1
  582   592     1
  582   593     1
  583   586     1
  583   587     1
  583   588     1
  583   591     1
  584   586     1
  584   587     1
  584   588     1
  584   591     1
  585   591     1
  586   589     1
  586   590     1
  587   589     1
  587   590     1
  591   596     1
  591   597     1
  591   611     1
  592   594     1
  592   595     1
  593   598     1
  593   599     1
  593   600     1
  593   612     1
  593   613     1
  594   596     1
  594   597     1
  594   611     1
  595   601     1
  595   607     1
  595   614     1
  595   615     1
  596   598     1
  596   599     1
  596   600     1
  596   612     1
  596   613     1
  597   602     1
  597   603     1
  597   608     1
  597   609     1
  597   612     1
  597   613     1
  598   601     1
  598   607     1
  598   611     1
  599   601     1
  599   607     1
  599   611     1
  600   604     1
  600   605     1
  600   610     1
  600   611     1
  601   606     1
  601   608     1
  601   609     1
  602   604     1
  602   605     1
  602   607     1
  603   607     1
  603   610     1
  604   606     1
  604   609     1
  605   608     1
  606   607     1
  606   610     1
  608   610     1
  611   616     1
  611   617     1
  611   635     1
  612   614     1
  612   615     1
  613   618     1
  613   619     1
  613   620     1
  613   636     1
  613   637     1
  614   616     1
  614   617     1
  614   635     1
  615   621     1
  615   622     1
  615   623     1
  615   638     1
  615   639     1
  616   618     1
  616   619     1
  616   620     1
  616   636     1
  616   637     1
  617   624     1
  617   625     1
  617   626     1
  617   636     1
  617   637     1
  618   621     1
  618   622     1
  618   623     1
  618   635     1
  619   621     1
  619   622     1
  619   623     1
  619   635     1
  620   627     1
  620   628     1
  620   635     1
  621   624     1
  621   625     1
  621   626     1
  622   624     1
  622   625     1
  622   626     1
  623   629     1
  623   632     1
  624   627     1
  624   628     1
  625   627     1
  625   628     1
  626   630     1
  626   631     1
  626   633     1
  626   634     1
  627   629     1
  627   632     1
  629   633     1
  629   634     1
  630   632     1
  631   632     1
  635   640     1
  635   641     1
  635   651     1
  636   638     1
  636   639     1
  637   642     1
  637   643     1
  637   647     1
  637   652     1
  637   653     1
  638   640     1
  638   641     1
  638   651     1
  639   644     1
  639   645     1
  639   646     1
  639   648     1
  639   649     1
  639   650     1
  639   654     1
  639   655     1
  640   642     1
  640   643     1
  640   647     1
  640   652     1
  640   653     1
  641   652     1
  641   653     1
  642   644     1
  642   645     1
  642   646     1
  642   648     1
  642   649     1
  642   650     1
  642   651     1
  643   648     1
  643   649     1
  643   650     1
  643   651     1
  644   647     1
  645   647     1
  646   647     1
  647   651     1
  651   656     1
  651   657     1
  651   672     1
  652   654     1
  652   655     1
  653   658     1
  653   659     1
  653   660     1
  653   673     1
  653   674     1
  654   656     1
  654   657     1
  654   672     1
  655   661     1
  655   668     1
  656   658     1
  656   659     1
  656   660     1
  656   673     1
  656   674     1
  657   662     1
  657   663     1
  657   669     1
  657   670     1
  657   673     1
  657   674     1
  658   661     1
  658   668     1
  658   672     1
  659   661     1
  659   668     1
  659   672     1
  660   664     1
  660   665     1
  660   671     1
  660   672     1
  661   666     1
  661   669     1
  661   670     1
  662   664     1
  662   665     1
  662   668     1
  663   667     1
  663   668     1
  663   671     1
  664   666     1
  664   670     1
  665   669     1
  666   668     1
  666   671     1
  667   670     1
  669   671     1
  675   678     1
  675   683     1
  675   684     1
  675   691     1
  675   692     1
  675   694     1
  675   697     1
  676   677     1
  676   681     1
  676   682     1
  676   690     1
  677   680     1
  677   691     1
  677   692     1
  677   701     1
  677   722     1
  678   690     1
  678   695     1
  678   696     1
  678   698     1
  678   699     1
  678   700     1
  679   681     1
  679   682     1
  679   690     1
  679   695     1
  679   696     1
  679   698     1
  679   699     1
  679   700     1
  680   685     1
  680   686     1
  680   693     1
  680   695     1
  680   696     1
  681   683     1
  681   684     1
  681   691     1
  681   692     1
  681   694     1
  682   687     1
  682   688     1
  682   689     1
  682   691     1
  682   692     1
  682   694     1
  683   685     1
  683   686     1
  683   690     1
  684   690     1
  685   687     1
  685   688     1
  685   689     1
  690   697     1
  690   722     1
  691   693     1
  691   695     1
  691   696     1
  692   695     1
  692   696     1
  693   694     1
  694   698     1
  694   699     1
  694   700     1
  694   723     1
  694   726     1
  694   727     1
  695   697     1
  695   722     1
  696   697     1
  696   724     1
  696   728     1
  696   729     1
  696   737     1
  697   702     1
  697   705     1
  697   706     1
  698   701     1
  699   701     1
  700   703     1
  700   707     1
  700   708     1
  700   710     1
  701   704     1
  701   709     1
  701   711     1
  701   712     1
  701   714     1
  701   718     1
  702   703     1
  702   707     1
  702   708     1
  702   710     1
  703   706     1
  703   711     1
  703   712     1
  703   717     1
  704   710     1
  704   715     1
  704   716     1
  704   719     1
  704   720     1
  704   721     1
  705   707     1
  705   708     1
  705   710     1
  705   715     1
  705   716     1
  705   719     1
  705   720     1
  705   721     1
  706   713     1
  706   715     1
  706   716     1
  707   709     1
  707   711     1
  707   712     1
  707   714     1
  708   711     1
  708   712     1
  708   714     1
  709   710     1
  710   717     1
  710   718     1
  711   713     1
  711   715     1
  711   716     1
  712   715     1
  712   716     1
  713   714     1
  714   719     1
  714   720     1
  714   721     1
  715   717     1
  715   718     1
  716   718     1
  722   725     1
  722   730     1
  722   731     1
  722   738     1
  722   739     1
  722   741     1
  722   744     1
  723   724     1
  723   728     1
  723   729     1
  723   737     1
  724   727     1
  724   738     1
  724   739     1
  724   748     1
  724   749     1
  725   737     1
  725   742     1
  725   743     1
  725   745     1
  725   746     1
  725   747     1
  726   728     1
  726   729     1
  726   737     1
  726   742     1
  726   743     1
  726   745     1
  726   746     1
  726   747     1
  727   732     1
  727   733     1
  727   740     1
  727   742     1
  727   743     1
  728   730     1
  728   731     1
  728   738     1
  728   739     1
  728   741     1
  729   734     1
  729   735     1
  729   736     1
  729   738     1
  729   739     1
  729   741     1
  730   732     1
  730   733     1
  730   737     1
  731   737     1
  732   734     1
  732   735     1
  732   736     1
  737   744     1
  737   749     1
  738   740     1
  738   742     1
  738   743     1
  739   742     1
  739   743     1
  740   741     1
  741   745     1
  741   746     1
  741   747     1
  741   750     1
  741   753     1
  741   754     1
  742   744     1
  742   749     1
  743   744     1
  743   751     1
  743   755     1
  743   756     1
  743   758     1
  745   748     1
  746   748     1
  749   752     1
  749   757     1
  749   759     1
  749   760     1
  749   761     1
  749   765     1
  750   751     1
  750   755     1
  750   756     1
  750   758     1
  751   754     1
  751   759     1
  751   760     1
  751   764     1
  751   769     1
  752   758     1
  752   762     1
  752   763     1
  752   766     1
  752   767     1
  752   768     1
  753   755     1
  753   756     1
  753   758     1
  753   762     1
  753   763     1
  753   766     1
  753   767     1
  753   768     1
  754   762     1
  754   763     1
  754   818     1
  755   757     1
  755   759     1
  755   760     1
  755   761     1
  756   759     1
  756   760     1
  756   761     1
  757   758     1
  758   764     1
  758   765     1
  758   819     1
  758   822     1
  758   823     1
  759   762     1
  759   763     1
  759   818     1
  760   762     1
  760   763     1
  760   820     1
  760   824     1
  760   825     1
  760   826     1
  761   766     1
  761   767     1
  761   768     1
  761   818     1
  762   764     1
  762   765     1
  763   765     1
  765   770     1
  765   773     1
  765   774     1
  766   769     1
  767   769     1
  768   771     1
  768   775     1
  768   776     1
  768   777     1
  769   772     1
  769   778     1
  769   779     1
  769   781     1
  769   785     1
  769   790     1
  770   771     1
  770   775     1
  770   776     1
  770   777     1
  771   774     1
  771   778     1
  771   779     1
  771   784     1
  771   789     1
  772   777     1
  772   782     1
  772   783     1
  772   786     1
  772   787     1
  772   788     1
  773   775     1
  773   776     1
  773   777     1
  773   782     1
  773   783     1
  773   786     1
  773   787     1
  773   788     1
  774   780     1
  774   782     1
  774   783     1
  774   791     1
  774   794     1
  774   795     1
  775   778     1
  775   779     1
  775   781     1
  775   790     1
  776   778     1
  776   779     1
  776   781     1
  776   792     1
  776   796     1
  776   797     1
  776   805     1
  777   784     1
  777   785     1
  777   790     1
  778   780     1
  778   782     1
  778   783     1
  779   782     1
  779   783     1
  780   781     1
  781   786     1
  781   787     1
  781   788     1
  782   784     1
  782   785     1
  783   785     1
  786   789     1
  787   789     1
  790   793     1
  790   798     1
  790   799     1
  790   806     1
  790   807     1
  790   809     1
  790   813     1
  791   792     1
  791   796     1
  791   797     1
  791   805     1
  792   795     1
  792   806     1
  792   807     1
  792   812     1
  792   817     1
  793   805     1
  793   810     1
  793   811     1
  793   814     1
  793   815     1
  793   816     1
  794   796     1
  794   797     1
  794   805     1
  794   810     1
  794   811     1
  794   814     1
  794   815     1
  794   816     1
  795   800     1
  795   801     1
  795   808     1
  795   810     1
  795   811     1
  796   798     1
  796   799     1
  796   806     1
  796   807     1
  796   809     1
  797   802     1
  797   803     1
  797   804     1
  797   806     1
  797   807     1
  797   809     1
  798   800     1
  798   801     1
  798   805     1
  799   805     1
  800   802     1
  800   803     1
  800   804     1
  805   812     1
  805   813     1
  806   808     1
  806   810     1
  806   811     1
  807   810     1
  807   811     1
  808   809     1
  809   814     1
  809   815     1
  809   816     1
  810   812     1
  810   813     1
  811   813     1
  814   817     1
  815   817     1
  818   821     1
  818   827     1
  818   828     1
  818   830     1
  818   834     1
  818   839     1
  819   820     1
  819   824     1
  819   825     1
  819   826     1
  820   823     1
  820   827     1
  820   828     1
  820   833     1
  820   838     1
  821   826     1
  821   831     1
  821   832     1
  821   835     1
  821   836     1
  821   837     1
  822   824     1
  822   825     1
  822   826     1
  822   831     1
  822   832     1
  822   835     1
  822   836     1
  822   837     1
  823   829     1
  823   831     1
  823   832     1
  823   840     1
  823   843     1
  823   844     1
  824   827     1
  824   828     1
  824   830     1
  824   839     1
  825   827     1
  825   828     1
  825   830     1
  825   841     1
  825   845     1
  825   846     1
  825   854     1
  826   833     1
  826   834     1
  826   839     1
  827   829     1
  827   831     1
  827   832     1
  828   831     1
  828   832     1
  829   830     1
  830   835     1
  830   836     1
  830   837     1
  831   833     1
  831   834     1
  832   834     1
  835   838     1
  836   838     1
  839   842     1
  839   847     1
  839   848     1
  839   855     1
  839   856     1
  839   858     1
  839   862     1
  840   841     1
  840   845     1
  840   846     1
  840   854     1
  841   844     1
  841   855     1
  841   856     1
  841   861     1
  841   866     1
  842   854     1
  842   859     1
  842   860     1
  842   863     1
  842   864     1
  842   865     1
  843   845     1
  843   846     1
  843   854     1
  843   859     1
  843   860     1
  843   863     1
  843   864     1
  843   865     1
  844   849     1
  844   850     1
  844   857     1
  844   859     1
  844   860     1
  845   847     1
  845   848     1
  845   855     1
  845   856     1
  845   858     1
  846   851     1
  846   852     1
  846   853     1
  846   855     1
  846   856     1
  846   858     1
  847   849     1
  847   850     1
  847   854     1
  848   854     1
  849   851     1
  849   852     1
  849   853     1
  854   861     1
  854   862     1
  855   857     1
  855   859     1
  855   860     1
  856   859     1
  856   860     1
  857   858     1
  858   863     1
  858   864     1
  858   865     1
  859   861     1
  859   862     1
  860   862     1
  863   866     1
  864   866     1

[ angles ] 
; ai	aj	ak	funct	th0	cth	S0	Kub
    2     1     3     5
    2     1     4     5
    2     1     5     5
    3     1     4     5
    3     1     5     5
    4     1     5     5
    1     5     6     5
    1     5     7     5
    1     5    17     5
    6     5     7     5
    6     5    17     5
    7     5    17     5
    5     7     8     5
    5     7     9     5
    5     7    13     5
    8     7     9     5
    8     7    13     5
    9     7    13     5
    7     9    10     5
    7     9    11     5
    7     9    12     5
   10     9    11     5
   10     9    12     5
   11     9    12     5
    7    13    14     5
    7    13    15     5
    7    13    16     5
   14    13    15     5
   14    13    16     5
   15    13    16     5
    5    17    18     5
    5    17    19     5
   18    17    19     5
   17    19    20     5
   17    19    21     5
   20    19    21     5
   19    21    22     5
   19    21    23     5
   19    21    31     5
   22    21    23     5
   22    21    31     5
   23    21    31     5
   21    23    24     5
   21    23    25     5
   21    23    26     5
   24    23    25     5
   24    23    26     5
   25    23    26     5
   23    26    27     5
   23    26    28     5
   27    26    28     5
   26    28    29     5
   26    28    30     5
   29    28    30     5
   21    31    32     5
   21    31    33     5
   32    31    33     5
   31    33    34     5
   31    33    35     5
   34    33    35     5
   33    35    36     5
   33    35    37     5
   33    35    45     5
   36    35    37     5
   36    35    45     5
   37    35    45     5
   35    37    38     5
   35    37    39     5
   35    37    40     5
   38    37    39     5
   38    37    40     5
   39    37    40     5
   37    40    41     5
   37    40    42     5
   41    40    42     5
   40    42    43     5
   40    42    44     5
   43    42    44     5
   35    45    46     5
   35    45    47     5
   46    45    47     5
   45    47    48     5
   45    47    49     5
   48    47    49     5
   47    49    50     5
   47    49    51     5
   47    49    55     5
   50    49    51     5
   50    49    55     5
   51    49    55     5
   49    51    52     5
   49    51    53     5
   49    51    54     5
   52    51    53     5
   52    51    54     5
   53    51    54     5
   49    55    56     5
   49    55    57     5
   56    55    57     5
   55    57    58     5
   55    57    59     5
   58    57    59     5
   57    59    60     5
   57    59    61     5
   57    59    69     5
   60    59    61     5
   60    59    69     5
   61    59    69     5
   59    61    62     5
   59    61    63     5
   59    61    65     5
   62    61    63     5
   62    61    65     5
   63    61    65     5
   61    63    64     5
   61    65    66     5
   61    65    67     5
   61    65    68     5
   66    65    67     5
   66    65    68     5
   67    65    68     5
   59    69    70     5
   59    69    71     5
   70    69    71     5
   69    71    72     5
   69    71    73     5
   72    71    73     5
   71    73    74     5
   71    73    75     5
   71    73    83     5
   74    73    75     5
   74    73    83     5
   75    73    83     5
   73    75    76     5
   73    75    77     5
   73    75    78     5
   76    75    77     5
   76    75    78     5
   77    75    78     5
   75    78    79     5
   75    78    80     5
   79    78    80     5
   78    80    81     5
   78    80    82     5
   81    80    82     5
   73    83    84     5
   73    83    85     5
   84    83    85     5
   83    85    86     5
   83    85    87     5
   86    85    87     5
   85    87    88     5
   85    87    89     5
   85    87    99     5
   88    87    89     5
   88    87    99     5
   89    87    99     5
   87    89    90     5
   87    89    91     5
   87    89    95     5
   90    89    91     5
   90    89    95     5
   91    89    95     5
   89    91    92     5
   89    91    93     5
   89    91    94     5
   92    91    93     5
   92    91    94     5
   93    91    94     5
   89    95    96     5
   89    95    97     5
   89    95    98     5
   96    95    97     5
   96    95    98     5
   97    95    98     5
   87    99   100     5
   87    99   101     5
  100    99   101     5
   99   101   102     5
   99   101   103     5
  102   101   103     5
  101   103   104     5
  101   103   105     5
  101   103   115     5
  104   103   105     5
  104   103   115     5
  105   103   115     5
  103   105   106     5
  103   105   107     5
  103   105   111     5
  106   105   107     5
  106   105   111     5
  107   105   111     5
  105   107   108     5
  105   107   109     5
  105   107   110     5
  108   107   109     5
  108   107   110     5
  109   107   110     5
  105   111   112     5
  105   111   113     5
  105   111   114     5
  112   111   113     5
  112   111   114     5
  113   111   114     5
  103   115   116     5
  103   115   117     5
  116   115   117     5
  115   117   118     5
  115   117   119     5
  118   117   119     5
  117   119   120     5
  117   119   121     5
  117   119   134     5
  120   119   121     5
  120   119   134     5
  121   119   134     5
  119   121   122     5
  119   121   123     5
  119   121   127     5
  122   121   123     5
  122   121   127     5
  123   121   127     5
  121   123   124     5
  121   123   125     5
  121   123   126     5
  124   123   125     5
  124   123   126     5
  125   123   126     5
  121   127   128     5
  121   127   129     5
  121   127   130     5
  128   127   129     5
  128   127   130     5
  129   127   130     5
  127   130   131     5
  127   130   132     5
  127   130   133     5
  131   130   132     5
  131   130   133     5
  132   130   133     5
  119   134   135     5
  119   134   136     5
  135   134   136     5
  134   136   137     5
  134   136   138     5
  137   136   138     5
  136   138   139     5
  136   138   140     5
  136   138   156     5
  139   138   140     5
  139   138   156     5
  140   138   156     5
  138   140   141     5
  138   140   142     5
  138   140   143     5
  141   140   142     5
  141   140   143     5
  142   140   143     5
  140   143   144     5
  140   143   145     5
  140   143   146     5
  144   143   145     5
  144   143   146     5
  145   143   146     5
  143   146   147     5
  143   146   148     5
  143   146   149     5
  147   146   148     5
  147   146   149     5
  148   146   149     5
  146   149   150     5
  146   149   151     5
  146   149   152     5
  150   149   151     5
  150   149   152     5
  151   149   152     5
  149   152   153     5
  149   152   154     5
  149   152   155     5
  153   152   154     5
  153   152   155     5
  154   152   155     5
  138   156   157     5
  138   156   158     5
  157   156   158     5
  156   158   159     5
  156   158   160     5
  159   158   160     5
  158   160   161     5
  158   160   162     5
  158   160   172     5
  161   160   162     5
  161   160   172     5
  162   160   172     5
  160   162   163     5
  160   162   164     5
  160   162   168     5
  163   162   164     5
  163   162   168     5
  164   162   168     5
  162   164   165     5
  162   164   166     5
  162   164   167     5
  165   164   166     5
  165   164   167     5
  166   164   167     5
  162   168   169     5
  162   168   170     5
  162   168   171     5
  169   168   170     5
  169   168   171     5
  170   168   171     5
  160   172   173     5
  160   172   174     5
  173   172   174     5
  172   174   175     5
  172   174   176     5
  175   174   176     5
  174   176   177     5
  174   176   178     5
  174   176   183     5
  177   176   178     5
  177   176   183     5
  178   176   183     5
  176   178   179     5
  176   178   180     5
  176   178   181     5
  179   178   180     5
  179   178   181     5
  180   178   181     5
  178   181   182     5
  176   183   184     5
  176   183   185     5
  184   183   185     5
  183   185   186     5
  183   185   187     5
  186   185   187     5
  185   187   188     5
  185   187   189     5
  185   187   198     5
  188   187   189     5
  188   187   198     5
  189   187   198     5
  187   189   190     5
  187   189   191     5
  187   189   192     5
  190   189   191     5
  190   189   192     5
  191   189   192     5
  189   192   193     5
  189   192   194     5
  189   192   195     5
  193   192   194     5
  193   192   195     5
  194   192   195     5
  192   195   196     5
  192   195   197     5
  196   195   197     5
  187   198   199     5
  187   198   200     5
  199   198   200     5
  198   200   201     5
  198   200   202     5
  201   200   202     5
  200   202   203     5
  200   202   204     5
  200   202   218     5
  203   202   204     5
  203   202   218     5
  204   202   218     5
  202   204   205     5
  202   204   206     5
  202   204   207     5
  205   204   206     5
  205   204   207     5
  206   204   207     5
  204   207   208     5
  204   207   214     5
  208   207   214     5
  207   208   209     5
  207   208   210     5
  209   208   210     5
  208   210   211     5
  208   210   212     5
  211   210   212     5
  210   212   213     5
  210   212   216     5
  213   212   216     5
  207   214   215     5
  207   214   216     5
  215   214   216     5
  212   216   214     5
  212   216   217     5
  214   216   217     5
  202   218   219     5
  202   218   220     5
  219   218   220     5
  218   220   221     5
  218   220   222     5
  221   220   222     5
  220   222   223     5
  220   222   224     5
  220   222   235     5
  223   222   224     5
  223   222   235     5
  224   222   235     5
  222   224   225     5
  222   224   226     5
  222   224   227     5
  225   224   226     5
  225   224   227     5
  226   224   227     5
  224   227   228     5
  224   227   229     5
  224   227   230     5
  228   227   229     5
  228   227   230     5
  229   227   230     5
  227   230   231     5
  227   230   232     5
  231   230   232     5
  230   232   233     5
  230   232   234     5
  233   232   234     5
  222   235   236     5
  222   235   237     5
  236   235   237     5
  235   237   238     5
  235   237   239     5
  238   237   239     5
  237   239   240     5
  237   239   241     5
  237   239   255     5
  240   239   241     5
  240   239   255     5
  241   239   255     5
  239   241   242     5
  239   241   243     5
  239   241   244     5
  242   241   243     5
  242   241   244     5
  243   241   244     5
  241   244   245     5
  241   244   251     5
  245   244   251     5
  244   245   246     5
  244   245   247     5
  246   245   247     5
  245   247   248     5
  245   247   249     5
  248   247   249     5
  247   249   250     5
  247   249   253     5
  250   249   253     5
  244   251   252     5
  244   251   253     5
  252   251   253     5
  249   253   251     5
  249   253   254     5
  251   253   254     5
  239   255   256     5
  239   255   257     5
  256   255   257     5
  255   257   258     5
  255   257   259     5
  258   257   259     5
  257   259   260     5
  257   259   261     5
  257   259   266     5
  260   259   261     5
  260   259   266     5
  261   259   266     5
  259   261   262     5
  259   261   263     5
  259   261   264     5
  262   261   263     5
  262   261   264     5
  263   261   264     5
  261   264   265     5
  259   266   267     5
  259   266   268     5
  267   266   268     5
  266   268   269     5
  266   268   270     5
  269   268   270     5
  268   270   271     5
  268   270   272     5
  268   270   280     5
  271   270   272     5
  271   270   280     5
  272   270   280     5
  270   272   273     5
  270   272   274     5
  270   272   275     5
  273   272   274     5
  273   272   275     5
  274   272   275     5
  272   275   276     5
  272   275   277     5
  276   275   277     5
  275   277   278     5
  275   277   279     5
  278   277   279     5
  270   280   281     5
  270   280   282     5
  281   280   282     5
  280   282   283     5
  280   282   284     5
  283   282   284     5
  282   284   285     5
  282   284   286     5
  282   284   292     5
  285   284   286     5
  285   284   292     5
  286   284   292     5
  284   286   287     5
  284   286   288     5
  284   286   289     5
  287   286   288     5
  287   286   289     5
  288   286   289     5
  286   289   290     5
  286   289   291     5
  290   289   291     5
  284   292   293     5
  284   292   294     5
  293   292   294     5
  292   294   295     5
  292   294   298     5
  295   294   298     5
  294   295   296     5
  294   295   297     5
  294   295   303     5
  296   295   297     5
  296   295   303     5
  297   295   303     5
  294   298   299     5
  294   298   300     5
  294   298   306     5
  299   298   300     5
  299   298   306     5
  300   298   306     5
  298   300   301     5
  298   300   302     5
  298   300   303     5
  301   300   302     5
  301   300   303     5
  302   300   303     5
  295   303   300     5
  295   303   304     5
  295   303   305     5
  300   303   304     5
  300   303   305     5
  304   303   305     5
  298   306   307     5
  298   306   308     5
  307   306   308     5
  306   308   309     5
  306   308   310     5
  309   308   310     5
  308   310   311     5
  308   310   312     5
  308   310   326     5
  311   310   312     5
  311   310   326     5
  312   310   326     5
  310   312   313     5
  310   312   314     5
  310   312   315     5
  313   312   314     5
  313   312   315     5
  314   312   315     5
  312   315   316     5
  312   315   322     5
  316   315   322     5
  315   316   317     5
  315   316   318     5
  317   316   318     5
  316   318   319     5
  316   318   320     5
  319   318   320     5
  318   320   321     5
  318   320   324     5
  321   320   324     5
  315   322   323     5
  315   322   324     5
  323   322   324     5
  320   324   322     5
  320   324   325     5
  322   324   325     5
  310   326   327     5
  310   326   328     5
  327   326   328     5
  326   328   329     5
  326   328   330     5
  329   328   330     5
  328   330   331     5
  328   330   332     5
  328   330   345     5
  331   330   332     5
  331   330   345     5
  332   330   345     5
  330   332   333     5
  330   332   334     5
  330   332   335     5
  333   332   334     5
  333   332   335     5
  334   332   335     5
  332   335   336     5
  332   335   337     5
  332   335   341     5
  336   335   337     5
  336   335   341     5
  337   335   341     5
  335   337   338     5
  335   337   339     5
  335   337   340     5
  338   337   339     5
  338   337   340     5
  339   337   340     5
  335   341   342     5
  335   341   343     5
  335   341   344     5
  342   341   343     5
  342   341   344     5
  343   341   344     5
  330   345   346     5
  330   345   347     5
  346   345   347     5
  345   347   348     5
  345   347   349     5
  348   347   349     5
  347   349   350     5
  347   349   351     5
  347   349   352     5
  350   349   351     5
  350   349   352     5
  351   349   352     5
  349   352   353     5
  349   352   354     5
  353   352   354     5
  352   354   355     5
  352   354   356     5
  355   354   356     5
  354   356   357     5
  354   356   358     5
  354   356   368     5
  357   356   358     5
  357   356   368     5
  358   356   368     5
  356   358   359     5
  356   358   360     5
  356   358   364     5
  359   358   360     5
  359   358   364     5
  360   358   364     5
  358   360   361     5
  358   360   362     5
  358   360   363     5
  361   360   362     5
  361   360   363     5
  362   360   363     5
  358   364   365     5
  358   364   366     5
  358   364   367     5
  365   364   366     5
  365   364   367     5
  366   364   367     5
  356   368   369     5
  356   368   370     5
  369   368   370     5
  368   370   371     5
  368   370   372     5
  371   370   372     5
  370   372   373     5
  370   372   374     5
  370   372   389     5
  373   372   374     5
  373   372   389     5
  374   372   389     5
  372   374   375     5
  372   374   376     5
  372   374   377     5
  375   374   376     5
  375   374   377     5
  376   374   377     5
  374   377   378     5
  374   377   385     5
  378   377   385     5
  377   378   379     5
  377   378   380     5
  379   378   380     5
  378   380   381     5
  378   380   382     5
  381   380   382     5
  380   382   383     5
  380   382   387     5
  383   382   387     5
  382   383   384     5
  377   385   386     5
  377   385   387     5
  386   385   387     5
  382   387   385     5
  382   387   388     5
  385   387   388     5
  372   389   390     5
  372   389   391     5
  390   389   391     5
  389   391   392     5
  389   391   393     5
  392   391   393     5
  391   393   394     5
  391   393   395     5
  391   393   410     5
  394   393   395     5
  394   393   410     5
  395   393   410     5
  393   395   396     5
  393   395   397     5
  393   395   398     5
  396   395   397     5
  396   395   398     5
  397   395   398     5
  395   398   399     5
  395   398   406     5
  399   398   406     5
  398   399   400     5
  398   399   401     5
  400   399   401     5
  399   401   402     5
  399   401   403     5
  402   401   403     5
  401   403   404     5
  401   403   408     5
  404   403   408     5
  403   404   405     5
  398   406   407     5
  398   406   408     5
  407   406   408     5
  403   408   406     5
  403   408   409     5
  406   408   409     5
  393   410   411     5
  393   410   412     5
  411   410   412     5
  410   412   413     5
  410   412   414     5
  413   412   414     5
  412   414   415     5
  412   414   416     5
  412   414   427     5
  415   414   416     5
  415   414   427     5
  416   414   427     5
  414   416   417     5
  414   416   418     5
  414   416   421     5
  417   416   418     5
  417   416   421     5
  418   416   421     5
  420   419   421     5
  420   419   422     5
  421   419   422     5
  416   421   419     5
  416   421   425     5
  419   421   425     5
  419   422   423     5
  419   422   424     5
  423   422   424     5
  422   424   425     5
  421   425   424     5
  421   425   426     5
  424   425   426     5
  414   427   428     5
  414   427   429     5
  428   427   429     5
  427   429   430     5
  427   429   431     5
  430   429   431     5
  429   431   432     5
  429   431   433     5
  429   431   449     5
  432   431   433     5
  432   431   449     5
  433   431   449     5
  431   433   434     5
  431   433   435     5
  431   433   436     5
  434   433   435     5
  434   433   436     5
  435   433   436     5
  433   436   437     5
  433   436   438     5
  433   436   439     5
  437   436   438     5
  437   436   439     5
  438   436   439     5
  436   439   440     5
  436   439   441     5
  436   439   442     5
  440   439   441     5
  440   439   442     5
  441   439   442     5
  439   442   443     5
  439   442   444     5
  439   442   445     5
  443   442   444     5
  443   442   445     5
  444   442   445     5
  442   445   446     5
  442   445   447     5
  442   445   448     5
  446   445   447     5
  446   445   448     5
  447   445   448     5
  431   449   450     5
  431   449   451     5
  450   449   451     5
  449   451   452     5
  449   451   453     5
  452   451   453     5
  451   453   454     5
  451   453   455     5
  451   453   463     5
  454   453   455     5
  454   453   463     5
  455   453   463     5
  453   455   456     5
  453   455   457     5
  453   455   458     5
  456   455   457     5
  456   455   458     5
  457   455   458     5
  455   458   459     5
  455   458   460     5
  459   458   460     5
  458   460   461     5
  458   460   462     5
  461   460   462     5
  453   463   464     5
  453   463   465     5
  464   463   465     5
  463   465   466     5
  463   465   467     5
  466   465   467     5
  465   467   468     5
  465   467   469     5
  465   467   476     5
  468   467   469     5
  468   467   476     5
  469   467   476     5
  467   469   470     5
  467   469   471     5
  467   469   472     5
  470   469   471     5
  470   469   472     5
  471   469   472     5
  469   472   473     5
  469   472   474     5
  473   472   474     5
  472   474   475     5
  472   474   675     5
  475   474   675     5
  467   476   477     5
  467   476   478     5
  477   476   478     5
  476   478   479     5
  476   478   480     5
  479   478   480     5
  478   480   481     5
  478   480   482     5
  478   480   498     5
  481   480   482     5
  481   480   498     5
  482   480   498     5
  480   482   483     5
  480   482   484     5
  480   482   485     5
  483   482   484     5
  483   482   485     5
  484   482   485     5
  482   485   486     5
  482   485   487     5
  482   485   488     5
  486   485   487     5
  486   485   488     5
  487   485   488     5
  485   488   489     5
  485   488   490     5
  485   488   491     5
  489   488   490     5
  489   488   491     5
  490   488   491     5
  488   491   492     5
  488   491   493     5
  488   491   494     5
  492   491   493     5
  492   491   494     5
  493   491   494     5
  491   494   495     5
  491   494   496     5
  491   494   497     5
  495   494   496     5
  495   494   497     5
  496   494   497     5
  480   498   499     5
  480   498   500     5
  499   498   500     5
  498   500   501     5
  498   500   502     5
  501   500   502     5
  500   502   503     5
  500   502   504     5
  500   502   509     5
  503   502   504     5
  503   502   509     5
  504   502   509     5
  502   504   505     5
  502   504   506     5
  502   504   507     5
  505   504   506     5
  505   504   507     5
  506   504   507     5
  504   507   508     5
  502   509   510     5
  502   509   511     5
  510   509   511     5
  509   511   512     5
  509   511   513     5
  512   511   513     5
  511   513   514     5
  511   513   515     5
  511   513   533     5
  514   513   515     5
  514   513   533     5
  515   513   533     5
  513   515   516     5
  513   515   517     5
  513   515   518     5
  516   515   517     5
  516   515   518     5
  517   515   518     5
  515   518   519     5
  515   518   524     5
  519   518   524     5
  518   519   520     5
  518   519   521     5
  520   519   521     5
  519   521   522     5
  519   521   523     5
  522   521   523     5
  521   523   524     5
  521   523   529     5
  524   523   529     5
  518   524   523     5
  518   524   525     5
  523   524   525     5
  524   525   526     5
  524   525   527     5
  526   525   527     5
  525   527   528     5
  525   527   531     5
  528   527   531     5
  523   529   530     5
  523   529   531     5
  530   529   531     5
  527   531   529     5
  527   531   532     5
  529   531   532     5
  513   533   534     5
  513   533   535     5
  534   533   535     5
  533   535   536     5
  533   535   537     5
  536   535   537     5
  535   537   538     5
  535   537   539     5
  535   537   550     5
  538   537   539     5
  538   537   550     5
  539   537   550     5
  537   539   540     5
  537   539   541     5
  537   539   542     5
  540   539   541     5
  540   539   542     5
  541   539   542     5
  539   542   543     5
  539   542   544     5
  539   542   545     5
  543   542   544     5
  543   542   545     5
  544   542   545     5
  542   545   546     5
  545   546   547     5
  545   546   548     5
  545   546   549     5
  547   546   548     5
  547   546   549     5
  548   546   549     5
  537   550   551     5
  537   550   552     5
  551   550   552     5
  550   552   553     5
  550   552   554     5
  553   552   554     5
  552   554   555     5
  552   554   556     5
  552   554   565     5
  555   554   556     5
  555   554   565     5
  556   554   565     5
  554   556   557     5
  554   556   558     5
  554   556   559     5
  557   556   558     5
  557   556   559     5
  558   556   559     5
  556   559   560     5
  556   559   561     5
  556   559   562     5
  560   559   561     5
  560   559   562     5
  561   559   562     5
  559   562   563     5
  559   562   564     5
  563   562   564     5
  554   565   566     5
  554   565   567     5
  566   565   567     5
  565   567   568     5
  565   567   569     5
  568   567   569     5
  567   569   570     5
  567   569   571     5
  567   569   576     5
  570   569   571     5
  570   569   576     5
  571   569   576     5
  569   571   572     5
  569   571   573     5
  569   571   574     5
  572   571   573     5
  572   571   574     5
  573   571   574     5
  571   574   575     5
  569   576   577     5
  569   576   578     5
  577   576   578     5
  576   578   579     5
  576   578   580     5
  579   578   580     5
  578   580   581     5
  578   580   582     5
  578   580   591     5
  581   580   582     5
  581   580   591     5
  582   580   591     5
  580   582   583     5
  580   582   584     5
  580   582   585     5
  583   582   584     5
  583   582   585     5
  584   582   585     5
  582   585   586     5
  582   585   587     5
  582   585   588     5
  586   585   587     5
  586   585   588     5
  587   585   588     5
  585   588   589     5
  585   588   590     5
  589   588   590     5
  580   591   592     5
  580   591   593     5
  592   591   593     5
  591   593   594     5
  591   593   595     5
  594   593   595     5
  593   595   596     5
  593   595   597     5
  593   595   611     5
  596   595   597     5
  596   595   611     5
  597   595   611     5
  595   597   598     5
  595   597   599     5
  595   597   600     5
  598   597   599     5
  598   597   600     5
  599   597   600     5
  597   600   601     5
  597   600   607     5
  601   600   607     5
  600   601   602     5
  600   601   603     5
  602   601   603     5
  601   603   604     5
  601   603   605     5
  604   603   605     5
  603   605   606     5
  603   605   609     5
  606   605   609     5
  600   607   608     5
  600   607   609     5
  608   607   609     5
  605   609   607     5
  605   609   610     5
  607   609   610     5
  595   611   612     5
  595   611   613     5
  612   611   613     5
  611   613   614     5
  611   613   615     5
  614   613   615     5
  613   615   616     5
  613   615   617     5
  613   615   635     5
  616   615   617     5
  616   615   635     5
  617   615   635     5
  615   617   618     5
  615   617   619     5
  615   617   620     5
  618   617   619     5
  618   617   620     5
  619   617   620     5
  617   620   621     5
  617   620   622     5
  617   620   623     5
  621   620   622     5
  621   620   623     5
  622   620   623     5
  620   623   624     5
  620   623   625     5
  620   623   626     5
  624   623   625     5
  624   623   626     5
  625   623   626     5
  623   626   627     5
  623   626   628     5
  627   626   628     5
  626   628   629     5
  626   628   632     5
  629   628   632     5
  628   629   630     5
  628   629   631     5
  630   629   631     5
  628   632   633     5
  628   632   634     5
  633   632   634     5
  615   635   636     5
  615   635   637     5
  636   635   637     5
  635   637   638     5
  635   637   639     5
  638   637   639     5
  637   639   640     5
  637   639   641     5
  637   639   651     5
  640   639   641     5
  640   639   651     5
  641   639   651     5
  639   641   642     5
  639   641   643     5
  639   641   647     5
  642   641   643     5
  642   641   647     5
  643   641   647     5
  641   643   644     5
  641   643   645     5
  641   643   646     5
  644   643   645     5
  644   643   646     5
  645   643   646     5
  641   647   648     5
  641   647   649     5
  641   647   650     5
  648   647   649     5
  648   647   650     5
  649   647   650     5
  639   651   652     5
  639   651   653     5
  652   651   653     5
  651   653   654     5
  651   653   655     5
  654   653   655     5
  653   655   656     5
  653   655   657     5
  653   655   672     5
  656   655   657     5
  656   655   672     5
  657   655   672     5
  655   657   658     5
  655   657   659     5
  655   657   660     5
  658   657   659     5
  658   657   660     5
  659   657   660     5
  657   660   661     5
  657   660   668     5
  661   660   668     5
  660   661   662     5
  660   661   663     5
  662   661   663     5
  661   663   664     5
  661   663   665     5
  664   663   665     5
  663   665   666     5
  663   665   670     5
  666   665   670     5
  665   666   667     5
  660   668   669     5
  660   668   670     5
  669   668   670     5
  665   670   668     5
  665   670   671     5
  668   670   671     5
  655   672   673     5
  655   672   674     5
  673   672   674     5
  474   675   676     5
  474   675   679     5
  474   675   680     5
  676   675   679     5
  676   675   680     5
  679   675   680     5
  678   677   679     5
  678   677   694     5
  678   677   697     5
  679   677   694     5
  679   677   697     5
  694   677   697     5
  675   679   677     5
  675   680   681     5
  675   680   682     5
  675   680   690     5
  681   680   682     5
  681   680   690     5
  682   680   690     5
  680   682   683     5
  680   682   684     5
  683   682   684     5
  682   684   685     5
  682   684   686     5
  685   684   686     5
  684   686   687     5
  684   686   688     5
  684   686   689     5
  687   686   688     5
  687   686   689     5
  688   686   689     5
  680   690   691     5
  680   690   692     5
  680   690   694     5
  691   690   692     5
  691   690   694     5
  692   690   694     5
  690   692   693     5
  677   694   690     5
  677   694   695     5
  677   694   696     5
  690   694   695     5
  690   694   696     5
  695   694   696     5
  694   696   722     5
  677   697   698     5
  677   697   699     5
  677   697   700     5
  698   697   699     5
  698   697   700     5
  699   697   700     5
  697   700   701     5
  700   701   702     5
  700   701   705     5
  700   701   706     5
  702   701   705     5
  702   701   706     5
  705   701   706     5
  704   703   705     5
  704   703   714     5
  704   703   718     5
  705   703   714     5
  705   703   718     5
  714   703   718     5
  701   705   703     5
  701   706   707     5
  701   706   708     5
  701   706   710     5
  707   706   708     5
  707   706   710     5
  708   706   710     5
  706   708   709     5
  706   710   711     5
  706   710   712     5
  706   710   714     5
  711   710   712     5
  711   710   714     5
  712   710   714     5
  710   712   713     5
  703   714   710     5
  703   714   715     5
  703   714   716     5
  710   714   715     5
  710   714   716     5
  715   714   716     5
  714   716   717     5
  703   718   719     5
  703   718   720     5
  703   718   721     5
  719   718   720     5
  719   718   721     5
  720   718   721     5
  696   722   723     5
  696   722   726     5
  696   722   727     5
  723   722   726     5
  723   722   727     5
  726   722   727     5
  725   724   726     5
  725   724   741     5
  725   724   744     5
  726   724   741     5
  726   724   744     5
  741   724   744     5
  722   726   724     5
  722   727   728     5
  722   727   729     5
  722   727   737     5
  728   727   729     5
  728   727   737     5
  729   727   737     5
  727   729   730     5
  727   729   731     5
  730   729   731     5
  729   731   732     5
  729   731   733     5
  732   731   733     5
  731   733   734     5
  731   733   735     5
  731   733   736     5
  734   733   735     5
  734   733   736     5
  735   733   736     5
  727   737   738     5
  727   737   739     5
  727   737   741     5
  738   737   739     5
  738   737   741     5
  739   737   741     5
  737   739   740     5
  724   741   737     5
  724   741   742     5
  724   741   743     5
  737   741   742     5
  737   741   743     5
  742   741   743     5
  741   743   749     5
  724   744   745     5
  724   744   746     5
  724   744   747     5
  745   744   746     5
  745   744   747     5
  746   744   747     5
  744   747   748     5
  743   749   750     5
  743   749   753     5
  743   749   754     5
  750   749   753     5
  750   749   754     5
  753   749   754     5
  752   751   753     5
  752   751   761     5
  752   751   765     5
  753   751   761     5
  753   751   765     5
  761   751   765     5
  749   753   751     5
  749   754   755     5
  749   754   756     5
  749   754   758     5
  755   754   756     5
  755   754   758     5
  756   754   758     5
  754   756   757     5
  754   758   759     5
  754   758   760     5
  754   758   761     5
  759   758   760     5
  759   758   761     5
  760   758   761     5
  758   760   818     5
  751   761   758     5
  751   761   762     5
  751   761   763     5
  758   761   762     5
  758   761   763     5
  762   761   763     5
  761   763   764     5
  751   765   766     5
  751   765   767     5
  751   765   768     5
  766   765   767     5
  766   765   768     5
  767   765   768     5
  765   768   769     5
  768   769   770     5
  768   769   773     5
  768   769   774     5
  770   769   773     5
  770   769   774     5
  773   769   774     5
  772   771   773     5
  772   771   781     5
  772   771   785     5
  773   771   781     5
  773   771   785     5
  781   771   785     5
  769   773   771     5
  769   774   775     5
  769   774   776     5
  769   774   777     5
  775   774   776     5
  775   774   777     5
  776   774   777     5
  774   776   790     5
  774   777   778     5
  774   777   779     5
  774   777   781     5
  778   777   779     5
  778   777   781     5
  779   777   781     5
  777   779   780     5
  771   781   777     5
  771   781   782     5
  771   781   783     5
  777   781   782     5
  777   781   783     5
  782   781   783     5
  781   783   784     5
  771   785   786     5
  771   785   787     5
  771   785   788     5
  786   785   787     5
  786   785   788     5
  787   785   788     5
  785   788   789     5
  776   790   791     5
  776   790   794     5
  776   790   795     5
  791   790   794     5
  791   790   795     5
  794   790   795     5
  793   792   794     5
  793   792   809     5
  793   792   813     5
  794   792   809     5
  794   792   813     5
  809   792   813     5
  790   794   792     5
  790   795   796     5
  790   795   797     5
  790   795   805     5
  796   795   797     5
  796   795   805     5
  797   795   805     5
  795   797   798     5
  795   797   799     5
  798   797   799     5
  797   799   800     5
  797   799   801     5
  800   799   801     5
  799   801   802     5
  799   801   803     5
  799   801   804     5
  802   801   803     5
  802   801   804     5
  803   801   804     5
  795   805   806     5
  795   805   807     5
  795   805   809     5
  806   805   807     5
  806   805   809     5
  807   805   809     5
  805   807   808     5
  792   809   805     5
  792   809   810     5
  792   809   811     5
  805   809   810     5
  805   809   811     5
  810   809   811     5
  809   811   812     5
  792   813   814     5
  792   813   815     5
  792   813   816     5
  814   813   815     5
  814   813   816     5
  815   813   816     5
  813   816   817     5
  760   818   819     5
  760   818   822     5
  760   818   823     5
  819   818   822     5
  819   818   823     5
  822   818   823     5
  821   820   822     5
  821   820   830     5
  821   820   834     5
  822   820   830     5
  822   820   834     5
  830   820   834     5
  818   822   820     5
  818   823   824     5
  818   823   825     5
  818   823   826     5
  824   823   825     5
  824   823   826     5
  825   823   826     5
  823   825   839     5
  823   826   827     5
  823   826   828     5
  823   826   830     5
  827   826   828     5
  827   826   830     5
  828   826   830     5
  826   828   829     5
  820   830   826     5
  820   830   831     5
  820   830   832     5
  826   830   831     5
  826   830   832     5
  831   830   832     5
  830   832   833     5
  820   834   835     5
  820   834   836     5
  820   834   837     5
  835   834   836     5
  835   834   837     5
  836   834   837     5
  834   837   838     5
  825   839   840     5
  825   839   843     5
  825   839   844     5
  840   839   843     5
  840   839   844     5
  843   839   844     5
  842   841   843     5
  842   841   858     5
  842   841   862     5
  843   841   858     5
  843   841   862     5
  858   841   862     5
  839   843   841     5
  839   844   845     5
  839   844   846     5
  839   844   854     5
  845   844   846     5
  845   844   854     5
  846   844   854     5
  844   846   847     5
  844   846   848     5
  847   846   848     5
  846   848   849     5
  846   848   850     5
  849   848   850     5
  848   850   851     5
  848   850   852     5
  848   850   853     5
  851   850   852     5
  851   850   853     5
  852   850   853     5
  844   854   855     5
  844   854   856     5
  844   854   858     5
  855   854   856     5
  855   854   858     5
  856   854   858     5
  854   856   857     5
  841   858   854     5
  841   858   859     5
  841   858   860     5
  854   858   859     5
  854   858   860     5
  859   858   860     5
  858   860   861     5
  841   862   863     5
  841   862   864     5
  841   862   865     5
  863   862   864     5
  863   862   865     5
  864   862   865     5
  862   865   866     5

[ dihedrals ]
; ai	aj	ak	al	funct	phi0	cp	mult
    2     1     5     6     9
    2     1     5     7     9
    2     1     5    17     9
    3     1     5     6     9
    3     1     5     7     9
    3     1     5    17     9
    4     1     5     6     9
    4     1     5     7     9
    4     1     5    17     9
    1     5     7     8     9
    1     5     7     9     9
    1     5     7    13     9
    6     5     7     8     9
    6     5     7     9     9
    6     5     7    13     9
    1     5    17    18     9
    1     5    17    19     9
    6     5    17    18     9
    6     5    17    19     9
    7     5    17    18     9
    7     5    17    19     9
    8     7     5    17     9
    9     7     5    17     9
   13     7     5    17     9
    5     7     9    10     9
    5     7     9    11     9
    5     7     9    12     9
    8     7     9    10     9
    8     7     9    11     9
    8     7     9    12     9
    5     7    13    14     9
    5     7    13    15     9
    5     7    13    16     9
    8     7    13    14     9
    8     7    13    15     9
    8     7    13    16     9
    9     7    13    14     9
    9     7    13    15     9
    9     7    13    16     9
   10     9     7    13     9
   11     9     7    13     9
   12     9     7    13     9
    5    17    19    20     9
    5    17    19    21     9
   18    17    19    20     9
   18    17    19    21     9
   17    19    21    22     9
   17    19    21    23     9
   17    19    21    31     9
   20    19    21    22     9
   20    19    21    23     9
   20    19    21    31     9
   19    21    23    24     9
   19    21    23    25     9
   19    21    23    26     9
   22    21    23    24     9
   22    21    23    25     9
   22    21    23    26     9
   19    21    31    32     9
   19    21    31    33     9
   22    21    31    32     9
   22    21    31    33     9
   23    21    31    32     9
   23    21    31    33     9
   24    23    21    31     9
   25    23    21    31     9
   26    23    21    31     9
   21    23    26    27     9
   21    23    26    28     9
   24    23    26    27     9
   24    23    26    28     9
   25    23    26    27     9
   25    23    26    28     9
   23    26    28    29     9
   23    26    28    30     9
   27    26    28    29     9
   27    26    28    30     9
   21    31    33    34     9
   21    31    33    35     9
   32    31    33    34     9
   32    31    33    35     9
   31    33    35    36     9
   31    33    35    37     9
   31    33    35    45     9
   34    33    35    36     9
   34    33    35    37     9
   34    33    35    45     9
   33    35    37    38     9
   33    35    37    39     9
   33    35    37    40     9
   36    35    37    38     9
   36    35    37    39     9
   36    35    37    40     9
   33    35    45    46     9
   33    35    45    47     9
   36    35    45    46     9
   36    35    45    47     9
   37    35    45    46     9
   37    35    45    47     9
   38    37    35    45     9
   39    37    35    45     9
   40    37    35    45     9
   35    37    40    41     9
   35    37    40    42     9
   38    37    40    41     9
   38    37    40    42     9
   39    37    40    41     9
   39    37    40    42     9
   37    40    42    43     9
   37    40    42    44     9
   41    40    42    43     9
   41    40    42    44     9
   35    45    47    48     9
   35    45    47    49     9
   46    45    47    48     9
   46    45    47    49     9
   45    47    49    50     9
   45    47    49    51     9
   45    47    49    55     9
   48    47    49    50     9
   48    47    49    51     9
   48    47    49    55     9
   47    49    51    52     9
   47    49    51    53     9
   47    49    51    54     9
   50    49    51    52     9
   50    49    51    53     9
   50    49    51    54     9
   47    49    55    56     9
   47    49    55    57     9
   50    49    55    56     9
   50    49    55    57     9
   51    49    55    56     9
   51    49    55    57     9
   52    51    49    55     9
   53    51    49    55     9
   54    51    49    55     9
   49    55    57    58     9
   49    55    57    59     9
   56    55    57    58     9
   56    55    57    59     9
   55    57    59    60     9
   55    57    59    61     9
   55    57    59    69     9
   58    57    59    60     9
   58    57    59    61     9
   58    57    59    69     9
   57    59    61    62     9
   57    59    61    63     9
   57    59    61    65     9
   60    59    61    62     9
   60    59    61    63     9
   60    59    61    65     9
   57    59    69    70     9
   57    59    69    71     9
   60    59    69    70     9
   60    59    69    71     9
   61    59    69    70     9
   61    59    69    71     9
   62    61    59    69     9
   63    61    59    69     9
   65    61    59    69     9
   59    61    63    64     9
   62    61    63    64     9
   59    61    65    66     9
   59    61    65    67     9
   59    61    65    68     9
   62    61    65    66     9
   62    61    65    67     9
   62    61    65    68     9
   63    61    65    66     9
   63    61    65    67     9
   63    61    65    68     9
   64    63    61    65     9
   59    69    71    72     9
   59    69    71    73     9
   70    69    71    72     9
   70    69    71    73     9
   69    71    73    74     9
   69    71    73    75     9
   69    71    73    83     9
   72    71    73    74     9
   72    71    73    75     9
   72    71    73    83     9
   71    73    75    76     9
   71    73    75    77     9
   71    73    75    78     9
   74    73    75    76     9
   74    73    75    77     9
   74    73    75    78     9
   71    73    83    84     9
   71    73    83    85     9
   74    73    83    84     9
   74    73    83    85     9
   75    73    83    84     9
   75    73    83    85     9
   76    75    73    83     9
   77    75    73    83     9
   78    75    73    83     9
   73    75    78    79     9
   73    75    78    80     9
   76    75    78    79     9
   76    75    78    80     9
   77    75    78    79     9
   77    75    78    80     9
   75    78    80    81     9
   75    78    80    82     9
   79    78    80    81     9
   79    78    80    82     9
   73    83    85    86     9
   73    83    85    87     9
   84    83    85    86     9
   84    83    85    87     9
   83    85    87    88     9
   83    85    87    89     9
   83    85    87    99     9
   86    85    87    88     9
   86    85    87    89     9
   86    85    87    99     9
   85    87    89    90     9
   85    87    89    91     9
   85    87    89    95     9
   88    87    89    90     9
   88    87    89    91     9
   88    87    89    95     9
   85    87    99   100     9
   85    87    99   101     9
   88    87    99   100     9
   88    87    99   101     9
   89    87    99   100     9
   89    87    99   101     9
   90    89    87    99     9
   91    89    87    99     9
   95    89    87    99     9
   87    89    91    92     9
   87    89    91    93     9
   87    89    91    94     9
   90    89    91    92     9
   90    89    91    93     9
   90    89    91    94     9
   87    89    95    96     9
   87    89    95    97     9
   87    89    95    98     9
   90    89    95    96     9
   90    89    95    97     9
   90    89    95    98     9
   91    89    95    96     9
   91    89    95    97     9
   91    89    95    98     9
   92    91    89    95     9
   93    91    89    95     9
   94    91    89    95     9
   87    99   101   102     9
   87    99   101   103     9
  100    99   101   102     9
  100    99   101   103     9
   99   101   103   104     9
   99   101   103   105     9
   99   101   103   115     9
  102   101   103   104     9
  102   101   103   105     9
  102   101   103   115     9
  101   103   105   106     9
  101   103   105   107     9
  101   103   105   111     9
  104   103   105   106     9
  104   103   105   107     9
  104   103   105   111     9
  101   103   115   116     9
  101   103   115   117     9
  104   103   115   116     9
  104   103   115   117     9
  105   103   115   116     9
  105   103   115   117     9
  106   105   103   115     9
  107   105   103   115     9
  111   105   103   115     9
  103   105   107   108     9
  103   105   107   109     9
  103   105   107   110     9
  106   105   107   108     9
  106   105   107   109     9
  106   105   107   110     9
  103   105   111   112     9
  103   105   111   113     9
  103   105   111   114     9
  106   105   111   112     9
  106   105   111   113     9
  106   105   111   114     9
  107   105   111   112     9
  107   105   111   113     9
  107   105   111   114     9
  108   107   105   111     9
  109   107   105   111     9
  110   107   105   111     9
  103   115   117   118     9
  103   115   117   119     9
  116   115   117   118     9
  116   115   117   119     9
  115   117   119   120     9
  115   117   119   121     9
  115   117   119   134     9
  118   117   119   120     9
  118   117   119   121     9
  118   117   119   134     9
  117   119   121   122     9
  117   119   121   123     9
  117   119   121   127     9
  120   119   121   122     9
  120   119   121   123     9
  120   119   121   127     9
  117   119   134   135     9
  117   119   134   136     9
  120   119   134   135     9
  120   119   134   136     9
  121   119   134   135     9
  121   119   134   136     9
  122   121   119   134     9
  123   121   119   134     9
  127   121   119   134     9
  119   121   123   124     9
  119   121   123   125     9
  119   121   123   126     9
  122   121   123   124     9
  122   121   123   125     9
  122   121   123   126     9
  119   121   127   128     9
  119   121   127   129     9
  119   121   127   130     9
  122   121   127   128     9
  122   121   127   129     9
  122   121   127   130     9
  123   121   127   128     9
  123   121   127   129     9
  123   121   127   130     9
  124   123   121   127     9
  125   123   121   127     9
  126   123   121   127     9
  121   127   130   131     9
  121   127   130   132     9
  121   127   130   133     9
  128   127   130   131     9
  128   127   130   132     9
  128   127   130   133     9
  129   127   130   131     9
  129   127   130   132     9
  129   127   130   133     9
  119   134   136   137     9
  119   134   136   138     9
  135   134   136   137     9
  135   134   136   138     9
  134   136   138   139     9
  134   136   138   140     9
  134   136   138   156     9
  137   136   138   139     9
  137   136   138   140     9
  137   136   138   156     9
  136   138   140   141     9
  136   138   140   142     9
  136   138   140   143     9
  139   138   140   141     9
  139   138   140   142     9
  139   138   140   143     9
  136   138   156   157     9
  136   138   156   158     9
  139   138   156   157     9
  139   138   156   158     9
  140   138   156   157     9
  140   138   156   158     9
  141   140   138   156     9
  142   140   138   156     9
  143   140   138   156     9
  138   140   143   144     9
  138   140   143   145     9
  138   140   143   146     9
  141   140   143   144     9
  141   140   143   145     9
  141   140   143   146     9
  142   140   143   144     9
  142   140   143   145     9
  142   140   143   146     9
  140   143   146   147     9
  140   143   146   148     9
  140   143   146   149     9
  144   143   146   147     9
  144   143   146   148     9
  144   143   146   149     9
  145   143   146   147     9
  145   143   146   148     9
  145   143   146   149     9
  143   146   149   150     9
  143   146   149   151     9
  143   146   149   152     9
  147   146   149   150     9
  147   146   149   151     9
  147   146   149   152     9
  148   146   149   150     9
  148   146   149   151     9
  148   146   149   152     9
  146   149   152   153     9
  146   149   152   154     9
  146   149   152   155     9
  150   149   152   153     9
  150   149   152   154     9
  150   149   152   155     9
  151   149   152   153     9
  151   149   152   154     9
  151   149   152   155     9
  138   156   158   159     9
  138   156   158   160     9
  157   156   158   159     9
  157   156   158   160     9
  156   158   160   161     9
  156   158   160   162     9
  156   158   160   172     9
  159   158   160   161     9
  159   158   160   162     9
  159   158   160   172     9
  158   160   162   163     9
  158   160   162   164     9
  158   160   162   168     9
  161   160   162   163     9
  161   160   162   164     9
  161   160   162   168     9
  158   160   172   173     9
  158   160   172   174     9
  161   160   172   173     9
  161   160   172   174     9
  162   160   172   173     9
  162   160   172   174     9
  163   162   160   172     9
  164   162   160   172     9
  168   162   160   172     9
  160   162   164   165     9
  160   162   164   166     9
  160   162   164   167     9
  163   162   164   165     9
  163   162   164   166     9
  163   162   164   167     9
  160   162   168   169     9
  160   162   168   170     9
  160   162   168   171     9
  163   162   168   169     9
  163   162   168   170     9
  163   162   168   171     9
  164   162   168   169     9
  164   162   168   170     9
  164   162   168   171     9
  165   164   162   168     9
  166   164   162   168     9
  167   164   162   168     9
  160   172   174   175     9
  160   172   174   176     9
  173   172   174   175     9
  173   172   174   176     9
  172   174   176   177     9
  172   174   176   178     9
  172   174   176   183     9
  175   174   176   177     9
  175   174   176   178     9
  175   174   176   183     9
  174   176   178   179     9
  174   176   178   180     9
  174   176   178   181     9
  177   176   178   179     9
  177   176   178   180     9
  177   176   178   181     9
  174   176   183   184     9
  174   176   183   185     9
  177   176   183   184     9
  177   176   183   185     9
  178   176   183   184     9
  178   176   183   185     9
  179   178   176   183     9
  180   178   176   183     9
  181   178   176   183     9
  176   178   181   182     9
  179   178   181   182     9
  180   178   181   182     9
  176   183   185   186     9
  176   183   185   187     9
  184   183   185   186     9
  184   183   185   187     9
  183   185   187   188     9
  183   185   187   189     9
  183   185   187   198     9
  186   185   187   188     9
  186   185   187   189     9
  186   185   187   198     9
  185   187   189   190     9
  185   187   189   191     9
  185   187   189   192     9
  188   187   189   190     9
  188   187   189   191     9
  188   187   189   192     9
  185   187   198   199     9
  185   187   198   200     9
  188   187   198   199     9
  188   187   198   200     9
  189   187   198   199     9
  189   187   198   200     9
  190   189   187   198     9
  191   189   187   198     9
  192   189   187   198     9
  187   189   192   193     9
  187   189   192   194     9
  187   189   192   195     9
  190   189   192   193     9
  190   189   192   194     9
  190   189   192   195     9
  191   189   192   193     9
  191   189   192   194     9
  191   189   192   195     9
  189   192   195   196     9
  189   192   195   197     9
  193   192   195   196     9
  193   192   195   197     9
  194   192   195   196     9
  194   192   195   197     9
  187   198   200   201     9
  187   198   200   202     9
  199   198   200   201     9
  199   198   200   202     9
  198   200   202   203     9
  198   200   202   204     9
  198   200   202   218     9
  201   200   202   203     9
  201   200   202   204     9
  201   200   202   218     9
  200   202   204   205     9
  200   202   204   206     9
  200   202   204   207     9
  203   202   204   205     9
  203   202   204   206     9
  203   202   204   207     9
  200   202   218   219     9
  200   202   218   220     9
  203   202   218   219     9
  203   202   218   220     9
  204   202   218   219     9
  204   202   218   220     9
  205   204   202   218     9
  206   204   202   218     9
  207   204   202   218     9
  202   204   207   208     9
  202   204   207   214     9
  205   204   207   208     9
  205   204   207   214     9
  206   204   207   208     9
  206   204   207   214     9
  204   207   208   209     9
  204   207   208   210     9
  204   207   214   215     9
  204   207   214   216     9
  208   207   214   215     9
  208   207   214   216     9
  209   208   207   214     9
  210   208   207   214     9
  207   208   210   211     9
  207   208   210   212     9
  209   208   210   211     9
  209   208   210   212     9
  208   210   212   213     9
  208   210   212   216     9
  211   210   212   213     9
  211   210   212   216     9
  210   212   216   214     9
  210   212   216   217     9
  213   212   216   214     9
  213   212   216   217     9
  207   214   216   212     9
  207   214   216   217     9
  215   214   216   217     9
  212   216   214   215     9
  202   218   220   221     9
  202   218   220   222     9
  219   218   220   221     9
  219   218   220   222     9
  218   220   222   223     9
  218   220   222   224     9
  218   220   222   235     9
  221   220   222   223     9
  221   220   222   224     9
  221   220   222   235     9
  220   222   224   225     9
  220   222   224   226     9
  220   222   224   227     9
  223   222   224   225     9
  223   222   224   226     9
  223   222   224   227     9
  220   222   235   236     9
  220   222   235   237     9
  223   222   235   236     9
  223   222   235   237     9
  224   222   235   236     9
  224   222   235   237     9
  225   224   222   235     9
  226   224   222   235     9
  227   224   222   235     9
  222   224   227   228     9
  222   224   227   229     9
  222   224   227   230     9
  225   224   227   228     9
  225   224   227   229     9
  225   224   227   230     9
  226   224   227   228     9
  226   224   227   229     9
  226   224   227   230     9
  224   227   230   231     9
  224   227   230   232     9
  228   227   230   231     9
  228   227   230   232     9
  229   227   230   231     9
  229   227   230   232     9
  227   230   232   233     9
  227   230   232   234     9
  231   230   232   233     9
  231   230   232   234     9
  222   235   237   238     9
  222   235   237   239     9
  236   235   237   238     9
  236   235   237   239     9
  235   237   239   240     9
  235   237   239   241     9
  235   237   239   255     9
  238   237   239   240     9
  238   237   239   241     9
  238   237   239   255     9
  237   239   241   242     9
  237   239   241   243     9
  237   239   241   244     9
  240   239   241   242     9
  240   239   241   243     9
  240   239   241   244     9
  237   239   255   256     9
  237   239   255   257     9
  240   239   255   256     9
  240   239   255   257     9
  241   239   255   256     9
  241   239   255   257     9
  242   241   239   255     9
  243   241   239   255     9
  244   241   239   255     9
  239   241   244   245     9
  239   241   244   251     9
  242   241   244   245     9
  242   241   244   251     9
  243   241   244   245     9
  243   241   244   251     9
  241   244   245   246     9
  241   244   245   247     9
  241   244   251   252     9
  241   244   251   253     9
  245   244   251   252     9
  245   244   251   253     9
  246   245   244   251     9
  247   245   244   251     9
  244   245   247   248     9
  244   245   247   249     9
  246   245   247   248     9
  246   245   247   249     9
  245   247   249   250     9
  245   247   249   253     9
  248   247   249   250     9
  248   247   249   253     9
  247   249   253   251     9
  247   249   253   254     9
  250   249   253   251     9
  250   249   253   254     9
  244   251   253   249     9
  244   251   253   254     9
  252   251   253   254     9
  249   253   251   252     9
  239   255   257   258     9
  239   255   257   259     9
  256   255   257   258     9
  256   255   257   259     9
  255   257   259   260     9
  255   257   259   261     9
  255   257   259   266     9
  258   257   259   260     9
  258   257   259   261     9
  258   257   259   266     9
  257   259   261   262     9
  257   259   261   263     9
  257   259   261   264     9
  260   259   261   262     9
  260   259   261   263     9
  260   259   261   264     9
  257   259   266   267     9
  257   259   266   268     9
  260   259   266   267     9
  260   259   266   268     9
  261   259   266   267     9
  261   259   266   268     9
  262   261   259   266     9
  263   261   259   266     9
  264   261   259   266     9
  259   261   264   265     9
  262   261   264   265     9
  263   261   264   265     9
  259   266   268   269     9
  259   266   268   270     9
  267   266   268   269     9
  267   266   268   270     9
  266   268   270   271     9
  266   268   270   272     9
  266   268   270   280     9
  269   268   270   271     9
  269   268   270   272     9
  269   268   270   280     9
  268   270   272   273     9
  268   270   272   274     9
  268   270   272   275     9
  271   270   272   273     9
  271   270   272   274     9
  271   270   272   275     9
  268   270   280   281     9
  268   270   280   282     9
  271   270   280   281     9
  271   270   280   282     9
  272   270   280   281     9
  272   270   280   282     9
  273   272   270   280     9
  274   272   270   280     9
  275   272   270   280     9
  270   272   275   276     9
  270   272   275   277     9
  273   272   275   276     9
  273   272   275   277     9
  274   272   275   276     9
  274   272   275   277     9
  272   275   277   278     9
  272   275   277   279     9
  276   275   277   278     9
  276   275   277   279     9
  270   280   282   283     9
  270   280   282   284     9
  281   280   282   283     9
  281   280   282   284     9
  280   282   284   285     9
  280   282   284   286     9
  280   282   284   292     9
  283   282   284   285     9
  283   282   284   286     9
  283   282   284   292     9
  282   284   286   287     9
  282   284   286   288     9
  282   284   286   289     9
  285   284   286   287     9
  285   284   286   288     9
  285   284   286   289     9
  282   284   292   293     9
  282   284   292   294     9
  285   284   292   293     9
  285   284   292   294     9
  286   284   292   293     9
  286   284   292   294     9
  287   286   284   292     9
  288   286   284   292     9
  289   286   284   292     9
  284   286   289   290     9
  284   286   289   291     9
  287   286   289   290     9
  287   286   289   291     9
  288   286   289   290     9
  288   286   289   291     9
  284   292   294   295     9
  284   292   294   298     9
  293   292   294   295     9
  293   292   294   298     9
  292   294   295   296     9
  292   294   295   297     9
  292   294   295   303     9
  298   294   295   303     9
  292   294   298   299     9
  292   294   298   300     9
  292   294   298   306     9
  295   294   298   299     9
  295   294   298   300     9
  295   294   298   306     9
  296   295   294   298     9
  297   295   294   298     9
  294   295   303   300     9
  294   295   303   304     9
  294   295   303   305     9
  296   295   303   300     9
  296   295   303   304     9
  296   295   303   305     9
  297   295   303   300     9
  297   295   303   304     9
  297   295   303   305     9
  294   298   300   301     9
  294   298   300   302     9
  294   298   300   303     9
  299   298   300   301     9
  299   298   300   302     9
  299   298   300   303     9
  294   298   306   307     9
  294   298   306   308     9
  299   298   306   307     9
  299   298   306   308     9
  300   298   306   307     9
  300   298   306   308     9
  301   300   298   306     9
  302   300   298   306     9
  303   300   298   306     9
  298   300   303   304     9
  298   300   303   305     9
  301   300   303   304     9
  301   300   303   305     9
  302   300   303   304     9
  302   300   303   305     9
  295   303   300   298     9
  295   303   300   301     9
  295   303   300   302     9
  298   306   308   309     9
  298   306   308   310     9
  307   306   308   309     9
  307   306   308   310     9
  306   308   310   311     9
  306   308   310   312     9
  306   308   310   326     9
  309   308   310   311     9
  309   308   310   312     9
  309   308   310   326     9
  308   310   312   313     9
  308   310   312   314     9
  308   310   312   315     9
  311   310   312   313     9
  311   310   312   314     9
  311   310   312   315     9
  308   310   326   327     9
  308   310   326   328     9
  311   310   326   327     9
  311   310   326   328     9
  312   310   326   327     9
  312   310   326   328     9
  313   312   310   326     9
  314   312   310   326     9
  315   312   310   326     9
  310   312   315   316     9
  310   312   315   322     9
  313   312   315   316     9
  313   312   315   322     9
  314   312   315   316     9
  314   312   315   322     9
  312   315   316   317     9
  312   315   316   318     9
  312   315   322   323     9
  312   315   322   324     9
  316   315   322   323     9
  316   315   322   324     9
  317   316   315   322     9
  318   316   315   322     9
  315   316   318   319     9
  315   316   318   320     9
  317   316   318   319     9
  317   316   318   320     9
  316   318   320   321     9
  316   318   320   324     9
  319   318   320   321     9
  319   318   320   324     9
  318   320   324   322     9
  318   320   324   325     9
  321   320   324   322     9
  321   320   324   325     9
  315   322   324   320     9
  315   322   324   325     9
  323   322   324   325     9
  320   324   322   323     9
  310   326   328   329     9
  310   326   328   330     9
  327   326   328   329     9
  327   326   328   330     9
  326   328   330   331     9
  326   328   330   332     9
  326   328   330   345     9
  329   328   330   331     9
  329   328   330   332     9
  329   328   330   345     9
  328   330   332   333     9
  328   330   332   334     9
  328   330   332   335     9
  331   330   332   333     9
  331   330   332   334     9
  331   330   332   335     9
  328   330   345   346     9
  328   330   345   347     9
  331   330   345   346     9
  331   330   345   347     9
  332   330   345   346     9
  332   330   345   347     9
  333   332   330   345     9
  334   332   330   345     9
  335   332   330   345     9
  330   332   335   336     9
  330   332   335   337     9
  330   332   335   341     9
  333   332   335   336     9
  333   332   335   337     9
  333   332   335   341     9
  334   332   335   336     9
  334   332   335   337     9
  334   332   335   341     9
  332   335   337   338     9
  332   335   337   339     9
  332   335   337   340     9
  336   335   337   338     9
  336   335   337   339     9
  336   335   337   340     9
  332   335   341   342     9
  332   335   341   343     9
  332   335   341   344     9
  336   335   341   342     9
  336   335   341   343     9
  336   335   341   344     9
  337   335   341   342     9
  337   335   341   343     9
  337   335   341   344     9
  338   337   335   341     9
  339   337   335   341     9
  340   337   335   341     9
  330   345   347   348     9
  330   345   347   349     9
  346   345   347   348     9
  346   345   347   349     9
  345   347   349   350     9
  345   347   349   351     9
  345   347   349   352     9
  348   347   349   350     9
  348   347   349   351     9
  348   347   349   352     9
  347   349   352   353     9
  347   349   352   354     9
  350   349   352   353     9
  350   349   352   354     9
  351   349   352   353     9
  351   349   352   354     9
  349   352   354   355     9
  349   352   354   356     9
  353   352   354   355     9
  353   352   354   356     9
  352   354   356   357     9
  352   354   356   358     9
  352   354   356   368     9
  355   354   356   357     9
  355   354   356   358     9
  355   354   356   368     9
  354   356   358   359     9
  354   356   358   360     9
  354   356   358   364     9
  357   356   358   359     9
  357   356   358   360     9
  357   356   358   364     9
  354   356   368   369     9
  354   356   368   370     9
  357   356   368   369     9
  357   356   368   370     9
  358   356   368   369     9
  358   356   368   370     9
  359   358   356   368     9
  360   358   356   368     9
  364   358   356   368     9
  356   358   360   361     9
  356   358   360   362     9
  356   358   360   363     9
  359   358   360   361     9
  359   358   360   362     9
  359   358   360   363     9
  356   358   364   365     9
  356   358   364   366     9
  356   358   364   367     9
  359   358   364   365     9
  359   358   364   366     9
  359   358   364   367     9
  360   358   364   365     9
  360   358   364   366     9
  360   358   364   367     9
  361   360   358   364     9
  362   360   358   364     9
  363   360   358   364     9
  356   368   370   371     9
  356   368   370   372     9
  369   368   370   371     9
  369   368   370   372     9
  368   370   372   373     9
  368   370   372   374     9
  368   370   372   389     9
  371   370   372   373     9
  371   370   372   374     9
  371   370   372   389     9
  370   372   374   375     9
  370   372   374   376     9
  370   372   374   377     9
  373   372   374   375     9
  373   372   374   376     9
  373   372   374   377     9
  370   372   389   390     9
  370   372   389   391     9
  373   372   389   390     9
  373   372   389   391     9
  374   372   389   390     9
  374   372   389   391     9
  375   374   372   389     9
  376   374   372   389     9
  377   374   372   389     9
  372   374   377   378     9
  372   374   377   385     9
  375   374   377   378     9
  375   374   377   385     9
  376   374   377   378     9
  376   374   377   385     9
  374   377   378   379     9
  374   377   378   380     9
  374   377   385   386     9
  374   377   385   387     9
  378   377   385   386     9
  378   377   385   387     9
  379   378   377   385     9
  380   378   377   385     9
  377   378   380   381     9
  377   378   380   382     9
  379   378   380   381     9
  379   378   380   382     9
  378   380   382   383     9
  378   380   382   387     9
  381   380   382   383     9
  381   380   382   387     9
  380   382   383   384     9
  380   382   387   385     9
  380   382   387   388     9
  383   382   387   385     9
  383   382   387   388     9
  384   383   382   387     9
  377   385   387   382     9
  377   385   387   388     9
  386   385   387   388     9
  382   387   385   386     9
  372   389   391   392     9
  372   389   391   393     9
  390   389   391   392     9
  390   389   391   393     9
  389   391   393   394     9
  389   391   393   395     9
  389   391   393   410     9
  392   391   393   394     9
  392   391   393   395     9
  392   391   393   410     9
  391   393   395   396     9
  391   393   395   397     9
  391   393   395   398     9
  394   393   395   396     9
  394   393   395   397     9
  394   393   395   398     9
  391   393   410   411     9
  391   393   410   412     9
  394   393   410   411     9
  394   393   410   412     9
  395   393   410   411     9
  395   393   410   412     9
  396   395   393   410     9
  397   395   393   410     9
  398   395   393   410     9
  393   395   398   399     9
  393   395   398   406     9
  396   395   398   399     9
  396   395   398   406     9
  397   395   398   399     9
  397   395   398   406     9
  395   398   399   400     9
  395   398   399   401     9
  395   398   406   407     9
  395   398   406   408     9
  399   398   406   407     9
  399   398   406   408     9
  400   399   398   406     9
  401   399   398   406     9
  398   399   401   402     9
  398   399   401   403     9
  400   399   401   402     9
  400   399   401   403     9
  399   401   403   404     9
  399   401   403   408     9
  402   401   403   404     9
  402   401   403   408     9
  401   403   404   405     9
  401   403   408   406     9
  401   403   408   409     9
  404   403   408   406     9
  404   403   408   409     9
  405   404   403   408     9
  398   406   408   403     9
  398   406   408   409     9
  407   406   408   409     9
  403   408   406   407     9
  393   410   412   413     9
  393   410   412   414     9
  411   410   412   413     9
  411   410   412   414     9
  410   412   414   415     9
  410   412   414   416     9
  410   412   414   427     9
  413   412   414   415     9
  413   412   414   416     9
  413   412   414   427     9
  412   414   416   417     9
  412   414   416   418     9
  412   414   416   421     9
  415   414   416   417     9
  415   414   416   418     9
  415   414   416   421     9
  412   414   427   428     9
  412   414   427   429     9
  415   414   427   428     9
  415   414   427   429     9
  416   414   427   428     9
  416   414   427   429     9
  417   416   414   427     9
  418   416   414   427     9
  421   416   414   427     9
  414   416   421   419     9
  414   416   421   425     9
  417   416   421   419     9
  417   416   421   425     9
  418   416   421   419     9
  418   416   421   425     9
  420   419   421   425     9
  422   419   421   425     9
  420   419   422   423     9
  420   419   422   424     9
  421   419   422   423     9
  421   419   422   424     9
  416   421   419   420     9
  416   421   419   422     9
  416   421   425   424     9
  416   421   425   426     9
  419   421   425   424     9
  419   421   425   426     9
  419   422   424   425     9
  423   422   424   425     9
  422   424   425   426     9
  421   425   424   422     9
  414   427   429   430     9
  414   427   429   431     9
  428   427   429   430     9
  428   427   429   431     9
  427   429   431   432     9
  427   429   431   433     9
  427   429   431   449     9
  430   429   431   432     9
  430   429   431   433     9
  430   429   431   449     9
  429   431   433   434     9
  429   431   433   435     9
  429   431   433   436     9
  432   431   433   434     9
  432   431   433   435     9
  432   431   433   436     9
  429   431   449   450     9
  429   431   449   451     9
  432   431   449   450     9
  432   431   449   451     9
  433   431   449   450     9
  433   431   449   451     9
  434   433   431   449     9
  435   433   431   449     9
  436   433   431   449     9
  431   433   436   437     9
  431   433   436   438     9
  431   433   436   439     9
  434   433   436   437     9
  434   433   436   438     9
  434   433   436   439     9
  435   433   436   437     9
  435   433   436   438     9
  435   433   436   439     9
  433   436   439   440     9
  433   436   439   441     9
  433   436   439   442     9
  437   436   439   440     9
  437   436   439   441     9
  437   436   439   442     9
  438   436   439   440     9
  438   436   439   441     9
  438   436   439   442     9
  436   439   442   443     9
  436   439   442   444     9
  436   439   442   445     9
  440   439   442   443     9
  440   439   442   444     9
  440   439   442   445     9
  441   439   442   443     9
  441   439   442   444     9
  441   439   442   445     9
  439   442   445   446     9
  439   442   445   447     9
  439   442   445   448     9
  443   442   445   446     9
  443   442   445   447     9
  443   442   445   448     9
  444   442   445   446     9
  444   442   445   447     9
  444   442   445   448     9
  431   449   451   452     9
  431   449   451   453     9
  450   449   451   452     9
  450   449   451   453     9
  449   451   453   454     9
  449   451   453   455     9
  449   451   453   463     9
  452   451   453   454     9
  452   451   453   455     9
  452   451   453   463     9
  451   453   455   456     9
  451   453   455   457     9
  451   453   455   458     9
  454   453   455   456     9
  454   453   455   457     9
  454   453   455   458     9
  451   453   463   464     9
  451   453   463   465     9
  454   453   463   464     9
  454   453   463   465     9
  455   453   463   464     9
  455   453   463   465     9
  456   455   453   463     9
  457   455   453   463     9
  458   455   453   463     9
  453   455   458   459     9
  453   455   458   460     9
  456   455   458   459     9
  456   455   458   460     9
  457   455   458   459     9
  457   455   458   460     9
  455   458   460   461     9
  455   458   460   462     9
  459   458   460   461     9
  459   458   460   462     9
  453   463   465   466     9
  453   463   465   467     9
  464   463   465   466     9
  464   463   465   467     9
  463   465   467   468     9
  463   465   467   469     9
  463   465   467   476     9
  466   465   467   468     9
  466   465   467   469     9
  466   465   467   476     9
  465   467   469   470     9
  465   467   469   471     9
  465   467   469   472     9
  468   467   469   470     9
  468   467   469   471     9
  468   467   469   472     9
  465   467   476   477     9
  465   467   476   478     9
  468   467   476   477     9
  468   467   476   478     9
  469   467   476   477     9
  469   467   476   478     9
  470   469   467   476     9
  471   469   467   476     9
  472   469   467   476     9
  467   469   472   473     9
  467   469   472   474     9
  470   469   472   473     9
  470   469   472   474     9
  471   469   472   473     9
  471   469   472   474     9
  469   472   474   475     9
  469   472   474   675     9
  473   472   474   475     9
  473   472   474   675     9
  472   474   675   676     9
  472   474   675   679     9
  472   474   675   680     9
  475   474   675   676     9
  475   474   675   679     9
  475   474   675   680     9
  467   476   478   479     9
  467   476   478   480     9
  477   476   478   479     9
  477   476   478   480     9
  476   478   480   481     9
  476   478   480   482     9
  476   478   480   498     9
  479   478   480   481     9
  479   478   480   482     9
  479   478   480   498     9
  478   480   482   483     9
  478   480   482   484     9
  478   480   482   485     9
  481   480   482   483     9
  481   480   482   484     9
  481   480   482   485     9
  478   480   498   499     9
  478   480   498   500     9
  481   480   498   499     9
  481   480   498   500     9
  482   480   498   499     9
  482   480   498   500     9
  483   482   480   498     9
  484   482   480   498     9
  485   482   480   498     9
  480   482   485   486     9
  480   482   485   487     9
  480   482   485   488     9
  483   482   485   486     9
  483   482   485   487     9
  483   482   485   488     9
  484   482   485   486     9
  484   482   485   487     9
  484   482   485   488     9
  482   485   488   489     9
  482   485   488   490     9
  482   485   488   491     9
  486   485   488   489     9
  486   485   488   490     9
  486   485   488   491     9
  487   485   488   489     9
  487   485   488   490     9
  487   485   488   491     9
  485   488   491   492     9
  485   488   491   493     9
  485   488   491   494     9
  489   488   491   492     9
  489   488   491   493     9
  489   488   491   494     9
  490   488   491   492     9
  490   488   491   493     9
  490   488   491   494     9
  488   491   494   495     9
  488   491   494   496     9
  488   491   494   497     9
  492   491   494   495     9
  492   491   494   496     9
  492   491   494   497     9
  493   491   494   495     9
  493   491   494   496     9
  493   491   494   497     9
  480   498   500   501     9
  480   498   500   502     9
  499   498   500   501     9
  499   498   500   502     9
  498   500   502   503     9
  498   500   502   504     9
  498   500   502   509     9
  501   500   502   503     9
  501   500   502   504     9
  501   500   502   509     9
  500   502   504   505     9
  500   502   504   506     9
  500   502   504   507     9
  503   502   504   505     9
  503   502   504   506     9
  503   502   504   507     9
  500   502   509   510     9
  500   502   509   511     9
  503   502   509   510     9
  503   502   509   511     9
  504   502   509   510     9
  504   502   509   511     9
  505   504   502   509     9
  506   504   502   509     9
  507   504   502   509     9
  502   504   507   508     9
  505   504   507   508     9
  506   504   507   508     9
  502   509   511   512     9
  502   509   511   513     9
  510   509   511   512     9
  510   509   511   513     9
  509   511   513   514     9
  509   511   513   515     9
  509   511   513   533     9
  512   511   513   514     9
  512   511   513   515     9
  512   511   513   533     9
  511   513   515   516     9
  511   513   515   517     9
  511   513   515   518     9
  514   513   515   516     9
  514   513   515   517     9
  514   513   515   518     9
  511   513   533   534     9
  511   513   533   535     9
  514   513   533   534     9
  514   513   533   535     9
  515   513   533   534     9
  515   513   533   535     9
  516   515   513   533     9
  517   515   513   533     9
  518   515   513   533     9
  513   515   518   519     9
  513   515   518   524     9
  516   515   518   519     9
  516   515   518   524     9
  517   515   518   519     9
  517   515   518   524     9
  515   518   519   520     9
  515   518   519   521     9
  515   518   524   523     9
  515   518   524   525     9
  519   518   524   523     9
  519   518   524   525     9
  520   519   518   524     9
  521   519   518   524     9
  518   519   521   522     9
  518   519   521   523     9
  520   519   521   522     9
  520   519   521   523     9
  519   521   523   524     9
  519   521   523   529     9
  522   521   523   524     9
  522   521   523   529     9
  521   523   524   525     9
  521   523   529   530     9
  521   523   529   531     9
  524   523   529   530     9
  524   523   529   531     9
  518   524   523   521     9
  518   524   523   529     9
  525   524   523   529     9
  518   524   525   526     9
  518   524   525   527     9
  523   524   525   526     9
  523   524   525   527     9
  524   525   527   528     9
  524   525   527   531     9
  526   525   527   528     9
  526   525   527   531     9
  525   527   531   529     9
  525   527   531   532     9
  528   527   531   529     9
  528   527   531   532     9
  523   529   531   527     9
  523   529   531   532     9
  530   529   531   532     9
  527   531   529   530     9
  513   533   535   536     9
  513   533   535   537     9
  534   533   535   536     9
  534   533   535   537     9
  533   535   537   538     9
  533   535   537   539     9
  533   535   537   550     9
  536   535   537   538     9
  536   535   537   539     9
  536   535   537   550     9
  535   537   539   540     9
  535   537   539   541     9
  535   537   539   542     9
  538   537   539   540     9
  538   537   539   541     9
  538   537   539   542     9
  535   537   550   551     9
  535   537   550   552     9
  538   537   550   551     9
  538   537   550   552     9
  539   537   550   551     9
  539   537   550   552     9
  540   539   537   550     9
  541   539   537   550     9
  542   539   537   550     9
  537   539   542   543     9
  537   539   542   544     9
  537   539   542   545     9
  540   539   542   543     9
  540   539   542   544     9
  540   539   542   545     9
  541   539   542   543     9
  541   539   542   544     9
  541   539   542   545     9
  539   542   545   546     9
  543   542   545   546     9
  544   542   545   546     9
  542   545   546   547     9
  542   545   546   548     9
  542   545   546   549     9
  537   550   552   553     9
  537   550   552   554     9
  551   550   552   553     9
  551   550   552   554     9
  550   552   554   555     9
  550   552   554   556     9
  550   552   554   565     9
  553   552   554   555     9
  553   552   554   556     9
  553   552   554   565     9
  552   554   556   557     9
  552   554   556   558     9
  552   554   556   559     9
  555   554   556   557     9
  555   554   556   558     9
  555   554   556   559     9
  552   554   565   566     9
  552   554   565   567     9
  555   554   565   566     9
  555   554   565   567     9
  556   554   565   566     9
  556   554   565   567     9
  557   556   554   565     9
  558   556   554   565     9
  559   556   554   565     9
  554   556   559   560     9
  554   556   559   561     9
  554   556   559   562     9
  557   556   559   560     9
  557   556   559   561     9
  557   556   559   562     9
  558   556   559   560     9
  558   556   559   561     9
  558   556   559   562     9
  556   559   562   563     9
  556   559   562   564     9
  560   559   562   563     9
  560   559   562   564     9
  561   559   562   563     9
  561   559   562   564     9
  554   565   567   568     9
  554   565   567   569     9
  566   565   567   568     9
  566   565   567   569     9
  565   567   569   570     9
  565   567   569   571     9
  565   567   569   576     9
  568   567   569   570     9
  568   567   569   571     9
  568   567   569   576     9
  567   569   571   572     9
  567   569   571   573     9
  567   569   571   574     9
  570   569   571   572     9
  570   569   571   573     9
  570   569   571   574     9
  567   569   576   577     9
  567   569   576   578     9
  570   569   576   577     9
  570   569   576   578     9
  571   569   576   577     9
  571   569   576   578     9
  572   571   569   576     9
  573   571   569   576     9
  574   571   569   576     9
  569   571   574   575     9
  572   571   574   575     9
  573   571   574   575     9
  569   576   578   579     9
  569   576   578   580     9
  577   576   578   579     9
  577   576   578   580     9
  576   578   580   581     9
  576   578   580   582     9
  576   578   580   591     9
  579   578   580   581     9
  579   578   580   582     9
  579   578   580   591     9
  578   580   582   583     9
  578   580   582   584     9
  578   580   582   585     9
  581   580   582   583     9
  581   580   582   584     9
  581   580   582   585     9
  578   580   591   592     9
  578   580   591   593     9
  581   580   591   592     9
  581   580   591   593     9
  582   580   591   592     9
  582   580   591   593     9
  583   582   580   591     9
  584   582   580   591     9
  585   582   580   591     9
  580   582   585   586     9
  580   582   585   587     9
  580   582   585   588     9
  583   582   585   586     9
  583   582   585   587     9
  583   582   585   588     9
  584   582   585   586     9
  584   582   585   587     9
  584   582   585   588     9
  582   585   588   589     9
  582   585   588   590     9
  586   585   588   589     9
  586   585   588   590     9
  587   585   588   589     9
  587   585   588   590     9
  580   591   593   594     9
  580   591   593   595     9
  592   591   593   594     9
  592   591   593   595     9
  591   593   595   596     9
  591   593   595   597     9
  591   593   595   611     9
  594   593   595   596     9
  594   593   595   597     9
  594   593   595   611     9
  593   595   597   598     9
  593   595   597   599     9
  593   595   597   600     9
  596   595   597   598     9
  596   595   597   599     9
  596   595   597   600     9
  593   595   611   612     9
  593   595   611   613     9
  596   595   611   612     9
  596   595   611   613     9
  597   595   611   612     9
  597   595   611   613     9
  598   597   595   611     9
  599   597   595   611     9
  600   597   595   611     9
  595   597   600   601     9
  595   597   600   607     9
  598   597   600   601     9
  598   597   600   607     9
  599   597   600   601     9
  599   597   600   607     9
  597   600   601   602     9
  597   600   601   603     9
  597   600   607   608     9
  597   600   607   609     9
  601   600   607   608     9
  601   600   607   609     9
  602   601   600   607     9
  603   601   600   607     9
  600   601   603   604     9
  600   601   603   605     9
  602   601   603   604     9
  602   601   603   605     9
  601   603   605   606     9
  601   603   605   609     9
  604   603   605   606     9
  604   603   605   609     9
  603   605   609   607     9
  603   605   609   610     9
  606   605   609   607     9
  606   605   609   610     9
  600   607   609   605     9
  600   607   609   610     9
  608   607   609   610     9
  605   609   607   608     9
  595   611   613   614     9
  595   611   613   615     9
  612   611   613   614     9
  612   611   613   615     9
  611   613   615   616     9
  611   613   615   617     9
  611   613   615   635     9
  614   613   615   616     9
  614   613   615   617     9
  614   613   615   635     9
  613   615   617   618     9
  613   615   617   619     9
  613   615   617   620     9
  616   615   617   618     9
  616   615   617   619     9
  616   615   617   620     9
  613   615   635   636     9
  613   615   635   637     9
  616   615   635   636     9
  616   615   635   637     9
  617   615   635   636     9
  617   615   635   637     9
  618   617   615   635     9
  619   617   615   635     9
  620   617   615   635     9
  615   617   620   621     9
  615   617   620   622     9
  615   617   620   623     9
  618   617   620   621     9
  618   617   620   622     9
  618   617   620   623     9
  619   617   620   621     9
  619   617   620   622     9
  619   617   620   623     9
  617   620   623   624     9
  617   620   623   625     9
  617   620   623   626     9
  621   620   623   624     9
  621   620   623   625     9
  621   620   623   626     9
  622   620   623   624     9
  622   620   623   625     9
  622   620   623   626     9
  620   623   626   627     9
  620   623   626   628     9
  624   623   626   627     9
  624   623   626   628     9
  625   623   626   627     9
  625   623   626   628     9
  623   626   628   629     9
  623   626   628   632     9
  627   626   628   629     9
  627   626   628   632     9
  626   628   629   630     9
  626   628   629   631     9
  626   628   632   633     9
  626   628   632   634     9
  629   628   632   633     9
  629   628   632   634     9
  630   629   628   632     9
  631   629   628   632     9
  615   635   637   638     9
  615   635   637   639     9
  636   635   637   638     9
  636   635   637   639     9
  635   637   639   640     9
  635   637   639   641     9
  635   637   639   651     9
  638   637   639   640     9
  638   637   639   641     9
  638   637   639   651     9
  637   639   641   642     9
  637   639   641   643     9
  637   639   641   647     9
  640   639   641   642     9
  640   639   641   643     9
  640   639   641   647     9
  637   639   651   652     9
  637   639   651   653     9
  640   639   651   652     9
  640   639   651   653     9
  641   639   651   652     9
  641   639   651   653     9
  642   641   639   651     9
  643   641   639   651     9
  647   641   639   651     9
  639   641   643   644     9
  639   641   643   645     9
  639   641   643   646     9
  642   641   643   644     9
  642   641   643   645     9
  642   641   643   646     9
  639   641   647   648     9
  639   641   647   649     9
  639   641   647   650     9
  642   641   647   648     9
  642   641   647   649     9
  642   641   647   650     9
  643   641   647   648     9
  643   641   647   649     9
  643   641   647   650     9
  644   643   641   647     9
  645   643   641   647     9
  646   643   641   647     9
  639   651   653   654     9
  639   651   653   655     9
  652   651   653   654     9
  652   651   653   655     9
  651   653   655   656     9
  651   653   655   657     9
  651   653   655   672     9
  654   653   655   656     9
  654   653   655   657     9
  654   653   655   672     9
  653   655   657   658     9
  653   655   657   659     9
  653   655   657   660     9
  656   655   657   658     9
  656   655   657   659     9
  656   655   657   660     9
  653   655   672   673     9
  653   655   672   674     9
  656   655   672   673     9
  656   655   672   674     9
  657   655   672   673     9
  657   655   672   674     9
  658   657   655   672     9
  659   657   655   672     9
  660   657   655   672     9
  655   657   660   661     9
  655   657   660   668     9
  658   657   660   661     9
  658   657   660   668     9
  659   657   660   661     9
  659   657   660   668     9
  657   660   661   662     9
  657   660   661   663     9
  657   660   668   669     9
  657   660   668   670     9
  661   660   668   669     9
  661   660   668   670     9
  662   661   660   668     9
  663   661   660   668     9
  660   661   663   664     9
  660   661   663   665     9
  662   661   663   664     9
  662   661   663   665     9
  661   663   665   666     9
  661   663   665   670     9
  664   663   665   666     9
  664   663   665   670     9
  663   665   666   667     9
  663   665   670   668     9
  663   665   670   671     9
  666   665   670   668     9
  666   665   670   671     9
  667   666   665   670     9
  660   668   670   665     9
  660   668   670   671     9
  669   668   670   671     9
  665   670   668   669     9
  474   675   679   677     9
  676   675   679   677     9
  474   675   680   681     9
  474   675   680   682     9
  474   675   680   690     9
  676   675   680   681     9
  676   675   680   682     9
  676   675   680   690     9
  679   675   680   681     9
  679   675   680   682     9
  679   675   680   690     9
  678   677   694   690     9
  678   677   694   695     9
  678   677   694   696     9
  679   677   694   690     9
  679   677   694   695     9
  679   677   694   696     9
  678   677   697   698     9
  678   677   697   699     9
  678   677   697   700     9
  679   677   697   698     9
  679   677   697   699     9
  679   677   697   700     9
  694   677   697   698     9
  694   677   697   699     9
  694   677   697   700     9
  677   679   675   680     9
  675   679   677   678     9
  675   679   677   694     9
  675   679   677   697     9
  675   680   682   683     9
  675   680   682   684     9
  681   680   682   683     9
  681   680   682   684     9
  675   680   690   691     9
  675   680   690   692     9
  675   680   690   694     9
  681   680   690   691     9
  681   680   690   692     9
  681   680   690   694     9
  682   680   690   691     9
  682   680   690   692     9
  682   680   690   694     9
  683   682   680   690     9
  684   682   680   690     9
  680   682   684   685     9
  680   682   684   686     9
  683   682   684   685     9
  683   682   684   686     9
  682   684   686   687     9
  682   684   686   688     9
  682   684   686   689     9
  685   684   686   687     9
  685   684   686   688     9
  685   684   686   689     9
  680   690   692   693     9
  691   690   692   693     9
  680   690   694   695     9
  680   690   694   696     9
  691   690   694   695     9
  691   690   694   696     9
  692   690   694   695     9
  692   690   694   696     9
  693   692   690   694     9
  690   694   677   697     9
  695   694   677   697     9
  696   694   677   697     9
  677   694   690   680     9
  677   694   690   691     9
  677   694   690   692     9
  677   694   696   722     9
  690   694   696   722     9
  695   694   696   722     9
  694   696   722   723     9
  694   696   722   726     9
  694   696   722   727     9
  677   697   700   701     9
  698   697   700   701     9
  699   697   700   701     9
  697   700   701   702     9
  697   700   701   705     9
  697   700   701   706     9
  700   701   705   703     9
  702   701   705   703     9
  700   701   706   707     9
  700   701   706   708     9
  700   701   706   710     9
  702   701   706   707     9
  702   701   706   708     9
  702   701   706   710     9
  705   701   706   707     9
  705   701   706   708     9
  705   701   706   710     9
  704   703   714   710     9
  704   703   714   715     9
  704   703   714   716     9
  705   703   714   710     9
  705   703   714   715     9
  705   703   714   716     9
  704   703   718   719     9
  704   703   718   720     9
  704   703   718   721     9
  705   703   718   719     9
  705   703   718   720     9
  705   703   718   721     9
  714   703   718   719     9
  714   703   718   720     9
  714   703   718   721     9
  703   705   701   706     9
  701   705   703   704     9
  701   705   703   714     9
  701   705   703   718     9
  701   706   708   709     9
  707   706   708   709     9
  701   706   710   711     9
  701   706   710   712     9
  701   706   710   714     9
  707   706   710   711     9
  707   706   710   712     9
  707   706   710   714     9
  708   706   710   711     9
  708   706   710   712     9
  708   706   710   714     9
  709   708   706   710     9
  706   710   712   713     9
  711   710   712   713     9
  706   710   714   715     9
  706   710   714   716     9
  711   710   714   715     9
  711   710   714   716     9
  712   710   714   715     9
  712   710   714   716     9
  713   712   710   714     9
  710   714   703   718     9
  715   714   703   718     9
  716   714   703   718     9
  703   714   710   706     9
  703   714   710   711     9
  703   714   710   712     9
  703   714   716   717     9
  710   714   716   717     9
  715   714   716   717     9
  696   722   726   724     9
  723   722   726   724     9
  696   722   727   728     9
  696   722   727   729     9
  696   722   727   737     9
  723   722   727   728     9
  723   722   727   729     9
  723   722   727   737     9
  726   722   727   728     9
  726   722   727   729     9
  726   722   727   737     9
  725   724   741   737     9
  725   724   741   742     9
  725   724   741   743     9
  726   724   741   737     9
  726   724   741   742     9
  726   724   741   743     9
  725   724   744   745     9
  725   724   744   746     9
  725   724   744   747     9
  726   724   744   745     9
  726   724   744   746     9
  726   724   744   747     9
  741   724   744   745     9
  741   724   744   746     9
  741   724   744   747     9
  724   726   722   727     9
  722   726   724   725     9
  722   726   724   741     9
  722   726   724   744     9
  722   727   729   730     9
  722   727   729   731     9
  728   727   729   730     9
  728   727   729   731     9
  722   727   737   738     9
  722   727   737   739     9
  722   727   737   741     9
  728   727   737   738     9
  728   727   737   739     9
  728   727   737   741     9
  729   727   737   738     9
  729   727   737   739     9
  729   727   737   741     9
  730   729   727   737     9
  731   729   727   737     9
  727   729   731   732     9
  727   729   731   733     9
  730   729   731   732     9
  730   729   731   733     9
  729   731   733   734     9
  729   731   733   735     9
  729   731   733   736     9
  732   731   733   734     9
  732   731   733   735     9
  732   731   733   736     9
  727   737   739   740     9
  738   737   739   740     9
  727   737   741   742     9
  727   737   741   743     9
  738   737   741   742     9
  738   737   741   743     9
  739   737   741   742     9
  739   737   741   743     9
  740   739   737   741     9
  737   741   724   744     9
  742   741   724   744     9
  743   741   724   744     9
  724   741   737   727     9
  724   741   737   738     9
  724   741   737   739     9
  724   741   743   749     9
  737   741   743   749     9
  742   741   743   749     9
  741   743   749   750     9
  741   743   749   753     9
  741   743   749   754     9
  724   744   747   748     9
  745   744   747   748     9
  746   744   747   748     9
  743   749   753   751     9
  750   749   753   751     9
  743   749   754   755     9
  743   749   754   756     9
  743   749   754   758     9
  750   749   754   755     9
  750   749   754   756     9
  750   749   754   758     9
  753   749   754   755     9
  753   749   754   756     9
  753   749   754   758     9
  752   751   761   758     9
  752   751   761   762     9
  752   751   761   763     9
  753   751   761   758     9
  753   751   761   762     9
  753   751   761   763     9
  752   751   765   766     9
  752   751   765   767     9
  752   751   765   768     9
  753   751   765   766     9
  753   751   765   767     9
  753   751   765   768     9
  761   751   765   766     9
  761   751   765   767     9
  761   751   765   768     9
  751   753   749   754     9
  749   753   751   752     9
  749   753   751   761     9
  749   753   751   765     9
  749   754   756   757     9
  755   754   756   757     9
  749   754   758   759     9
  749   754   758   760     9
  749   754   758   761     9
  755   754   758   759     9
  755   754   758   760     9
  755   754   758   761     9
  756   754   758   759     9
  756   754   758   760     9
  756   754   758   761     9
  757   756   754   758     9
  754   758   760   818     9
  759   758   760   818     9
  761   758   760   818     9
  754   758   761   762     9
  754   758   761   763     9
  759   758   761   762     9
  759   758   761   763     9
  760   758   761   762     9
  760   758   761   763     9
  758   760   818   819     9
  758   760   818   822     9
  758   760   818   823     9
  758   761   751   765     9
  762   761   751   765     9
  763   761   751   765     9
  751   761   758   754     9
  751   761   758   759     9
  751   761   758   760     9
  751   761   763   764     9
  758   761   763   764     9
  762   761   763   764     9
  751   765   768   769     9
  766   765   768   769     9
  767   765   768   769     9
  765   768   769   770     9
  765   768   769   773     9
  765   768   769   774     9
  768   769   773   771     9
  770   769   773   771     9
  768   769   774   775     9
  768   769   774   776     9
  768   769   774   777     9
  770   769   774   775     9
  770   769   774   776     9
  770   769   774   777     9
  773   769   774   775     9
  773   769   774   776     9
  773   769   774   777     9
  772   771   781   777     9
  772   771   781   782     9
  772   771   781   783     9
  773   771   781   777     9
  773   771   781   782     9
  773   771   781   783     9
  772   771   785   786     9
  772   771   785   787     9
  772   771   785   788     9
  773   771   785   786     9
  773   771   785   787     9
  773   771   785   788     9
  781   771   785   786     9
  781   771   785   787     9
  781   771   785   788     9
  771   773   769   774     9
  769   773   771   772     9
  769   773   771   781     9
  769   773   771   785     9
  769   774   776   790     9
  775   774   776   790     9
  777   774   776   790     9
  769   774   777   778     9
  769   774   777   779     9
  769   774   777   781     9
  775   774   777   778     9
  775   774   777   779     9
  775   774   777   781     9
  776   774   777   778     9
  776   774   777   779     9
  776   774   777   781     9
  774   776   790   791     9
  774   776   790   794     9
  774   776   790   795     9
  774   777   779   780     9
  778   777   779   780     9
  774   777   781   782     9
  774   777   781   783     9
  778   777   781   782     9
  778   777   781   783     9
  779   777   781   782     9
  779   777   781   783     9
  780   779   777   781     9
  777   781   771   785     9
  782   781   771   785     9
  783   781   771   785     9
  771   781   777   774     9
  771   781   777   778     9
  771   781   777   779     9
  771   781   783   784     9
  777   781   783   784     9
  782   781   783   784     9
  771   785   788   789     9
  786   785   788   789     9
  787   785   788   789     9
  776   790   794   792     9
  791   790   794   792     9
  776   790   795   796     9
  776   790   795   797     9
  776   790   795   805     9
  791   790   795   796     9
  791   790   795   797     9
  791   790   795   805     9
  794   790   795   796     9
  794   790   795   797     9
  794   790   795   805     9
  793   792   809   805     9
  793   792   809   810     9
  793   792   809   811     9
  794   792   809   805     9
  794   792   809   810     9
  794   792   809   811     9
  793   792   813   814     9
  793   792   813   815     9
  793   792   813   816     9
  794   792   813   814     9
  794   792   813   815     9
  794   792   813   816     9
  809   792   813   814     9
  809   792   813   815     9
  809   792   813   816     9
  792   794   790   795     9
  790   794   792   793     9
  790   794   792   809     9
  790   794   792   813     9
  790   795   797   798     9
  790   795   797   799     9
  796   795   797   798     9
  796   795   797   799     9
  790   795   805   806     9
  790   795   805   807     9
  790   795   805   809     9
  796   795   805   806     9
  796   795   805   807     9
  796   795   805   809     9
  797   795   805   806     9
  797   795   805   807     9
  797   795   805   809     9
  798   797   795   805     9
  799   797   795   805     9
  795   797   799   800     9
  795   797   799   801     9
  798   797   799   800     9
  798   797   799   801     9
  797   799   801   802     9
  797   799   801   803     9
  797   799   801   804     9
  800   799   801   802     9
  800   799   801   803     9
  800   799   801   804     9
  795   805   807   808     9
  806   805   807   808     9
  795   805   809   810     9
  795   805   809   811     9
  806   805   809   810     9
  806   805   809   811     9
  807   805   809   810     9
  807   805   809   811     9
  808   807   805   809     9
  805   809   792   813     9
  810   809   792   813     9
  811   809   792   813     9
  792   809   805   795     9
  792   809   805   806     9
  792   809   805   807     9
  792   809   811   812     9
  805   809   811   812     9
  810   809   811   812     9
  792   813   816   817     9
  814   813   816   817     9
  815   813   816   817     9
  760   818   822   820     9
  819   818   822   820     9
  760   818   823   824     9
  760   818   823   825     9
  760   818   823   826     9
  819   818   823   824     9
  819   818   823   825     9
  819   818   823   826     9
  822   818   823   824     9
  822   818   823   825     9
  822   818   823   826     9
  821   820   830   826     9
  821   820   830   831     9
  821   820   830   832     9
  822   820   830   826     9
  822   820   830   831     9
  822   820   830   832     9
  821   820   834   835     9
  821   820   834   836     9
  821   820   834   837     9
  822   820   834   835     9
  822   820   834   836     9
  822   820   834   837     9
  830   820   834   835     9
  830   820   834   836     9
  830   820   834   837     9
  820   822   818   823     9
  818   822   820   821     9
  818   822   820   830     9
  818   822   820   834     9
  818   823   825   839     9
  824   823   825   839     9
  826   823   825   839     9
  818   823   826   827     9
  818   823   826   828     9
  818   823   826   830     9
  824   823   826   827     9
  824   823   826   828     9
  824   823   826   830     9
  825   823   826   827     9
  825   823   826   828     9
  825   823   826   830     9
  823   825   839   840     9
  823   825   839   843     9
  823   825   839   844     9
  823   826   828   829     9
  827   826   828   829     9
  823   826   830   831     9
  823   826   830   832     9
  827   826   830   831     9
  827   826   830   832     9
  828   826   830   831     9
  828   826   830   832     9
  829   828   826   830     9
  826   830   820   834     9
  831   830   820   834     9
  832   830   820   834     9
  820   830   826   823     9
  820   830   826   827     9
  820   830   826   828     9
  820   830   832   833     9
  826   830   832   833     9
  831   830   832   833     9
  820   834   837   838     9
  835   834   837   838     9
  836   834   837   838     9
  825   839   843   841     9
  840   839   843   841     9
  825   839   844   845     9
  825   839   844   846     9
  825   839   844   854     9
  840   839   844   845     9
  840   839   844   846     9
  840   839   844   854     9
  843   839   844   845     9
  843   839   844   846     9
  843   839   844   854     9
  842   841   858   854     9
  842   841   858   859     9
  842   841   858   860     9
  843   841   858   854     9
  843   841   858   859     9
  843   841   858   860     9
  842   841   862   863     9
  842   841   862   864     9
  842   841   862   865     9
  843   841   862   863     9
  843   841   862   864     9
  843   841   862   865     9
  858   841   862   863     9
  858   841   862   864     9
  858   841   862   865     9
  841   843   839   844     9
  839   843   841   842     9
  839   843   841   858     9
  839   843   841   862     9
  839   844   846   847     9
  839   844   846   848     9
  845   844   846   847     9
  845   844   846   848     9
  839   844   854   855     9
  839   844   854   856     9
  839   844   854   858     9
  845   844   854   855     9
  845   844   854   856     9
  845   844   854   858     9
  846   844   854   855     9
  846   844   854   856     9
  846   844   854   858     9
  847   846   844   854     9
  848   846   844   854     9
  844   846   848   849     9
  844   846   848   850     9
  847   846   848   849     9
  847   846   848   850     9
  846   848   850   851     9
  846   848   850   852     9
  846   848   850   853     9
  849   848   850   851     9
  849   848   850   852     9
  849   848   850   853     9
  844   854   856   857     9
  855   854   856   857     9
  844   854   858   859     9
  844   854   858   860     9
  855   854   858   859     9
  855   854   858   860     9
  856   854   858   859     9
  856   854   858   860     9
  857   856   854   858     9
  854   858   841   862     9
  859   858   841   862     9
  860   858   841   862     9
  841   858   854   844     9
  841   858   854   855     9
  841   858   854   856     9
  841   858   860   861     9
  854   858   860   861     9
  859   858   860   861     9
  841   862   865   866     9
  863   862   865   866     9
  864   862   865   866     9

[ dihedrals ]
; ai	aj	ak	al	funct	q0	cq
   17     5    19    18     2
   19    17    21    20     2
   26    23    28    27     2
   26    28    23    27     2
   28    26    30    29     2
   28    26    29    30     2
   31    21    33    32     2
   33    31    35    34     2
   40    37    42    41     2
   40    42    37    41     2
   42    40    44    43     2
   42    40    43    44     2
   45    35    47    46     2
   47    45    49    48     2
   55    49    57    56     2
   57    55    59    58     2
   69    59    71    70     2
   71    69    73    72     2
   78    75    80    79     2
   78    80    75    79     2
   80    78    82    81     2
   80    78    81    82     2
   83    73    85    84     2
   85    83    87    86     2
   99    87   101   100     2
  101    99   103   102     2
  115   103   117   116     2
  117   115   119   118     2
  134   119   136   135     2
  136   134   138   137     2
  156   138   158   157     2
  158   156   160   159     2
  172   160   174   173     2
  174   172   176   175     2
  183   176   185   184     2
  185   183   187   186     2
  195   192   197   196     2
  198   187   200   199     2
  200   198   202   201     2
  218   202   220   219     2
  220   218   222   221     2
  230   227   232   231     2
  230   232   227   231     2
  232   230   234   233     2
  232   230   233   234     2
  235   222   237   236     2
  237   235   239   238     2
  255   239   257   256     2
  257   255   259   258     2
  266   259   268   267     2
  268   266   270   269     2
  275   272   277   276     2
  275   277   272   276     2
  277   275   279   278     2
  277   275   278   279     2
  280   270   282   281     2
  282   280   284   283     2
  289   286   291   290     2
  292   284   294   293     2
  294   292   298   295     2
  306   298   308   307     2
  308   306   310   309     2
  326   310   328   327     2
  328   326   330   329     2
  345   330   347   346     2
  347   345   349   348     2
  352   349   354   353     2
  354   352   356   355     2
  368   356   370   369     2
  370   368   372   371     2
  389   372   391   390     2
  391   389   393   392     2
  410   393   412   411     2
  412   410   414   413     2
  419   421   422   420     2
  419   422   421   420     2
  422   419   424   423     2
  422   424   419   423     2
  425   421   424   426     2
  425   424   421   426     2
  427   414   429   428     2
  429   427   431   430     2
  449   431   451   450     2
  451   449   453   452     2
  458   455   460   459     2
  458   460   455   459     2
  460   458   462   461     2
  460   458   461   462     2
  463   453   465   464     2
  465   463   467   466     2
  472   469   474   473     2
  472   474   469   473     2
  474   472   675   475     2
  476   467   478   477     2
  478   476   480   479     2
  498   480   500   499     2
  500   498   502   501     2
  509   502   511   510     2
  511   509   513   512     2
  533   513   535   534     2
  535   533   537   536     2
  550   537   552   551     2
  552   550   554   553     2
  562   559   564   563     2
  565   554   567   566     2
  567   565   569   568     2
  576   569   578   577     2
  578   576   580   579     2
  588   585   590   589     2
  591   580   593   592     2
  593   591   595   594     2
  611   595   613   612     2
  613   611   615   614     2
  628   629   632   626     2
  629   630   631   628     2
  632   633   634   628     2
  635   615   637   636     2
  637   635   639   638     2
  651   639   653   652     2
  653   651   655   654     2
  672   655   674   673     2
  682   684   680   683     2
  684   686   682   685     2
  729   731   727   730     2
  731   733   729   732     2
  797   799   795   798     2
  799   801   797   800     2
  846   848   844   847     2
  848   850   846   849     2

[ cmap ] 
; ai	aj	ak	al	am	funct
   17    19    21    31    33     1
   31    33    35    45    47     1
   45    47    49    55    57     1
   55    57    59    69    71     1
   69    71    73    83    85     1
   83    85    87    99   101     1
   99   101   103   115   117     1
  115   117   119   134   136     1
  134   136   138   156   158     1
  156   158   160   172   174     1
  172   174   176   183   185     1
  183   185   187   198   200     1
  198   200   202   218   220     1
  218   220   222   235   237     1
  235   237   239   255   257     1
  255   257   259   266   268     1
  266   268   270   280   282     1
  280   282   284   292   294     1
  292   294   298   306   308     1
  306   308   310   326   328     1
  326   328   330   345   347     1
  345   347   349   352   354     1
  352   354   356   368   370     1
  368   370   372   389   391     1
  389   391   393   410   412     1
  410   412   414   427   429     1
  427   429   431   449   451     1
  449   451   453   463   465     1
  463   465   467   476   478     1
  476   478   480   498   500     1
  498   500   502   509   511     1
  509   511   513   533   535     1
  533   535   537   550   552     1
  550   552   554   565   567     1
  565   567   569   576   578     1
  576   578   580   591   593     1
  591   593   595   611   613     1
  611   613   615   635   637     1
  635   637   639   651   653     1

#ifdef POSRES
[ position_restraints ]
    1     1    POSRES_FC_BB    POSRES_FC_BB    POSRES_FC_BB   
    5     1    POSRES_FC_BB    POSRES_FC_BB    POSRES_FC_BB   
    7     1    POSRES_FC_SC    POSRES_FC_SC    POSRES_FC_SC   
    9     1    POSRES_FC_SC    POSRES_FC_SC    POSRES_FC_SC   
   13     1    POSRES_FC_SC    POSRES_FC_SC    POSRES_FC_SC   
   17     1    POSRES_FC_BB    POSRES_FC_BB    POSRES_FC_BB   
   18     1    POSRES_FC_BB    POSRES_FC_BB    POSRES_FC_BB   
   19     1    POSRES_FC_BB    POSRES_FC_BB    POSRES_FC_BB   
   21     1    POSRES_FC_BB    POSRES_FC_BB    POSRES_FC_BB   
   23     1    POSRES_FC_SC    POSRES_FC_SC    POSRES_FC_SC   
   26     1    POSRES_FC_SC    POSRES_FC_SC    POSRES_FC_SC   
   27     1    POSRES_FC_SC    POSRES_FC_SC    POSRES_FC_SC   
   28     1    POSRES_FC_SC    POSRES_FC_SC    POSRES_FC_SC   
   31     1    POSRES_FC_BB    POSRES_FC_BB    POSRES_FC_BB   
   32     1    POSRES_FC_BB    POSRES_FC_BB    POSRES_FC_BB   
   33     1    POSRES_FC_BB    POSRES_FC_BB    POSRES_FC_BB   
   35     1    POSRES_FC_BB    POSRES_FC_BB    POSRES_FC_BB   
   37     1    POSRES_FC_SC    POSRES_FC_SC    POSRES_FC_SC   
   40     1    POSRES_FC_SC    POSRES_FC_SC    POSRES_FC_SC   
   41     1    POSRES_FC_SC    POSRES_FC_SC    POSRES_FC_SC   
   42     1    POSRES_FC_SC    POSRES_FC_SC    POSRES_FC_SC   
   45     1    POSRES_FC_BB    POSRES_FC_BB    POSRES_FC_BB   
   46     1    POSRES_FC_BB    POSRES_FC_BB    POSRES_FC_BB   
   47     1    POSRES_FC_BB    POSRES_FC_BB    POSRES_FC_BB   
   49     1    POSRES_FC_BB    POSRES_FC_BB    POSRES_FC_BB   
   51     1    POSRES_FC_SC    POSRES_FC_SC    POSRES_FC_SC   
   55     1    POSRES_FC_BB    POSRES_FC_BB    POSRES_FC_BB   
   56     1    POSRES_FC_BB    POSRES_FC_BB    POSRES_FC_BB   
   57     1    POSRES_FC_BB    POSRES_FC_BB    POSRES_FC_BB   
   59     1    POSRES_FC_BB    POSRES_FC_BB    POSRES_FC_BB   
   61     1    POSRES_FC_SC    POSRES_FC_SC    POSRES_FC_SC   
   63     1    POSRES_FC_SC    POSRES_FC_SC    POSRES_FC_SC   
   65     1    POSRES_FC_SC    POSRES_FC_SC    POSRES_FC_SC   
   69     1    POSRES_FC_BB    POSRES_FC_BB    POSRES_FC_BB   
   70     1    POSRES_FC_BB    POSRES_FC_BB    POSRES_FC_BB   
   71     1    POSRES_FC_BB    POSRES_FC_BB    POSRES_FC_BB   
   73     1    POSRES_FC_BB    POSRES_FC_BB    POSRES_FC_BB   
   75     1    POSRES_FC_SC    POSRES_FC_SC    POSRES_FC_SC   
   78     1    POSRES_FC_SC    POSRES_FC_SC    POSRES_FC_SC   
   79     1    POSRES_FC_SC    POSRES_FC_SC    POSRES_FC_SC   
   80     1    POSRES_FC_SC    POSRES_FC_SC    POSRES_FC_SC   
   83     1    POSRES_FC_BB    POSRES_FC_BB    POSRES_FC_BB   
   84     1    POSRES_FC_BB    POSRES_FC_BB    POSRES_FC_BB   
   85     1    POSRES_FC_BB    POSRES_FC_BB    POSRES_FC_BB   
   87     1    POSRES_FC_BB    POSRES_FC_BB    POSRES_FC_BB   
   89     1    POSRES_FC_SC    POSRES_FC_SC    POSRES_FC_SC   
   91     1    POSRES_FC_SC    POSRES_FC_SC    POSRES_FC_SC   
   95     1    POSRES_FC_SC    POSRES_FC_SC    POSRES_FC_SC   
   99     1    POSRES_FC_BB    POSRES_FC_BB    POSRES_FC_BB   
  100     1    POSRES_FC_BB    POSRES_FC_BB    POSRES_FC_BB   
  101     1    POSRES_FC_BB    POSRES_FC_BB    POSRES_FC_BB   
  103     1    POSRES_FC_BB    POSRES_FC_BB    POSRES_FC_BB   
  105     1    POSRES_FC_SC    POSRES_FC_SC    POSRES_FC_SC   
  107     1    POSRES_FC_SC    POSRES_FC_SC    POSRES_FC_SC   
  111     1    POSRES_FC_SC    POSRES_FC_SC    POSRES_FC_SC   
  115     1    POSRES_FC_BB    POSRES_FC_BB    POSRES_FC_BB   
  116     1    POSRES_FC_BB    POSRES_FC_BB    POSRES_FC_BB   
  117     1    POSRES_FC_BB    POSRES_FC_BB    POSRES_FC_BB   
  119     1    POSRES_FC_BB    POSRES_FC_BB    POSRES_FC_BB   
  121     1    POSRES_FC_SC    POSRES_FC_SC    POSRES_FC_SC   
  123     1    POSRES_FC_SC    POSRES_FC_SC    POSRES_FC_SC   
  127     1    POSRES_FC_SC    POSRES_FC_SC    POSRES_FC_SC   
  130     1    POSRES_FC_SC    POSRES_FC_SC    POSRES_FC_SC   
  134     1    POSRES_FC_BB    POSRES_FC_BB    POSRES_FC_BB   
  135     1    POSRES_FC_BB    POSRES_FC_BB    POSRES_FC_BB   
  136     1    POSRES_FC_BB    POSRES_FC_BB    POSRES_FC_BB   
  138     1    POSRES_FC_BB    POSRES_FC_BB    POSRES_FC_BB   
  140     1    POSRES_FC_SC    POSRES_FC_SC    POSRES_FC_SC   
  143     1    POSRES_FC_SC    POSRES_FC_SC    POSRES_FC_SC   
  146     1    POSRES_FC_SC    POSRES_FC_SC    POSRES_FC_SC   
  149     1    POSRES_FC_SC    POSRES_FC_SC    POSRES_FC_SC   
  152     1    POSRES_FC_SC    POSRES_FC_SC    POSRES_FC_SC   
  156     1    POSRES_FC_BB    POSRES_FC_BB    POSRES_FC_BB   
  157     1    POSRES_FC_BB    POSRES_FC_BB    POSRES_FC_BB   
  158     1    POSRES_FC_BB    POSRES_FC_BB    POSRES_FC_BB   
  160     1    POSRES_FC_BB    POSRES_FC_BB    POSRES_FC_BB   
  162     1    POSRES_FC_SC    POSRES_FC_SC    POSRES_FC_SC   
  164     1    POSRES_FC_SC    POSRES_FC_SC    POSRES_FC_SC   
  168     1    POSRES_FC_SC    POSRES_FC_SC    POSRES_FC_SC   
  172     1    POSRES_FC_BB    POSRES_FC_BB    POSRES_FC_BB   
  173     1    POSRES_FC_BB    POSRES_FC_BB    POSRES_FC_BB   
  174     1    POSRES_FC_BB    POSRES_FC_BB    POSRES_FC_BB   
  176     1    POSRES_FC_BB    POSRES_FC_BB    POSRES_FC_BB   
  178     1    POSRES_FC_SC    POSRES_FC_SC    POSRES_FC_SC   
  181     1    POSRES_FC_SC    POSRES_FC_SC    POSRES_FC_SC   
  183     1    POSRES_FC_BB    POSRES_FC_BB    POSRES_FC_BB   
  184     1    POSRES_FC_BB    POSRES_FC_BB    POSRES_FC_BB   
  185     1    POSRES_FC_BB    POSRES_FC_BB    POSRES_FC_BB   
  187     1    POSRES_FC_BB    POSRES_FC_BB    POSRES_FC_BB   
  189     1    POSRES_FC_SC    POSRES_FC_SC    POSRES_FC_SC   
  192     1    POSRES_FC_SC    POSRES_FC_SC    POSRES_FC_SC   
  195     1    POSRES_FC_SC    POSRES_FC_SC    POSRES_FC_SC   
  196     1    POSRES_FC_SC    POSRES_FC_SC    POSRES_FC_SC   
  197     1    POSRES_FC_SC    POSRES_FC_SC    POSRES_FC_SC   
  198     1    POSRES_FC_BB    POSRES_FC_BB    POSRES_FC_BB   
  199     1    POSRES_FC_BB    POSRES_FC_BB    POSRES_FC_BB   
  200     1    POSRES_FC_BB    POSRES_FC_BB    POSRES_FC_BB   
  202     1    POSRES_FC_BB    POSRES_FC_BB    POSRES_FC_BB   
  204     1    POSRES_FC_SC    POSRES_FC_SC    POSRES_FC_SC   
  207     1    POSRES_FC_SC    POSRES_FC_SC    POSRES_FC_SC   
  208     1    POSRES_FC_SC    POSRES_FC_SC    POSRES_FC_SC   
  210     1    POSRES_FC_SC    POSRES_FC_SC    POSRES_FC_SC   
  212     1    POSRES_FC_SC    POSRES_FC_SC    POSRES_FC_SC   
  214     1    POSRES_FC_SC    POSRES_FC_SC    POSRES_FC_SC   
  216     1    POSRES_FC_SC    POSRES_FC_SC    POSRES_FC_SC   
  218     1    POSRES_FC_BB    POSRES_FC_BB    POSRES_FC_BB   
  219     1    POSRES_FC_BB    POSRES_FC_BB    POSRES_FC_BB   
  220     1    POSRES_FC_BB    POSRES_FC_BB    POSRES_FC_BB   
  222     1    POSRES_FC_BB    POSRES_FC_BB    POSRES_FC_BB   
  224     1    POSRES_FC_SC    POSRES_FC_SC    POSRES_FC_SC   
  227     1    POSRES_FC_SC    POSRES_FC_SC    POSRES_FC_SC   
  230     1    POSRES_FC_SC    POSRES_FC_SC    POSRES_FC_SC   
  231     1    POSRES_FC_SC    POSRES_FC_SC    POSRES_FC_SC   
  232     1    POSRES_FC_SC    POSRES_FC_SC    POSRES_FC_SC   
  235     1    POSRES_FC_BB    POSRES_FC_BB    POSRES_FC_BB   
  236     1    POSRES_FC_BB    POSRES_FC_BB    POSRES_FC_BB   
  237     1    POSRES_FC_BB    POSRES_FC_BB    POSRES_FC_BB   
  239     1    POSRES_FC_BB    POSRES_FC_BB    POSRES_FC_BB   
  241     1    POSRES_FC_SC    POSRES_FC_SC    POSRES_FC_SC   
  244     1    POSRES_FC_SC    POSRES_FC_SC    POSRES_FC_SC   
  245     1    POSRES_FC_SC    POSRES_FC_SC    POSRES_FC_SC   
  247     1    POSRES_FC_SC    POSRES_FC_SC    POSRES_FC_SC   
  249     1    POSRES_FC_SC    POSRES_FC_SC    POSRES_FC_SC   
  251     1    POSRES_FC_SC    POSRES_FC_SC    POSRES_FC_SC   
  253     1    POSRES_FC_SC    POSRES_FC_SC    POSRES_FC_SC   
  255     1    POSRES_FC_BB    POSRES_FC_BB    POSRES_FC_BB   
  256     1    POSRES_FC_BB    POSRES_FC_BB    POSRES_FC_BB   
  257     1    POSRES_FC_BB    POSRES_FC_BB    POSRES_FC_BB   
  259     1    POSRES_FC_BB    POSRES_FC_BB    POSRES_FC_BB   
  261     1    POSRES_FC_SC    POSRES_FC_SC    POSRES_FC_SC   
  264     1    POSRES_FC_SC    POSRES_FC_SC    POSRES_FC_SC   
  266     1    POSRES_FC_BB    POSRES_FC_BB    POSRES_FC_BB   
  267     1    POSRES_FC_BB    POSRES_FC_BB    POSRES_FC_BB   
  268     1    POSRES_FC_BB    POSRES_FC_BB    POSRES_FC_BB   
  270     1    POSRES_FC_BB    POSRES_FC_BB    POSRES_FC_BB   
  272     1    POSRES_FC_SC    POSRES_FC_SC    POSRES_FC_SC   
  275     1    POSRES_FC_SC    POSRES_FC_SC    POSRES_FC_SC   
  276     1    POSRES_FC_SC    POSRES_FC_SC    POSRES_FC_SC   
  277     1    POSRES_FC_SC    POSRES_FC_SC    POSRES_FC_SC   
  280     1    POSRES_FC_BB    POSRES_FC_BB    POSRES_FC_BB   
  281     1    POSRES_FC_BB    POSRES_FC_BB    POSRES_FC_BB   
  282     1    POSRES_FC_BB    POSRES_FC_BB    POSRES_FC_BB   
  284     1    POSRES_FC_BB    POSRES_FC_BB    POSRES_FC_BB   
  286     1    POSRES_FC_SC    POSRES_FC_SC    POSRES_FC_SC   
  289     1    POSRES_FC_SC    POSRES_FC_SC    POSRES_FC_SC   
  290     1    POSRES_FC_SC    POSRES_FC_SC    POSRES_FC_SC   
  291     1    POSRES_FC_SC    POSRES_FC_SC    POSRES_FC_SC   
  292     1    POSRES_FC_BB    POSRES_FC_BB    POSRES_FC_BB   
  293     1    POSRES_FC_BB    POSRES_FC_BB    POSRES_FC_BB   
  294     1    POSRES_FC_BB    POSRES_FC_BB    POSRES_FC_BB   
  295     1    POSRES_FC_SC    POSRES_FC_SC    POSRES_FC_SC   
  298     1    POSRES_FC_BB    POSRES_FC_BB    POSRES_FC_BB   
  300     1    POSRES_FC_SC    POSRES_FC_SC    POSRES_FC_SC   
  303     1    POSRES_FC_SC    POSRES_FC_SC    POSRES_FC_SC   
  306     1    POSRES_FC_BB    POSRES_FC_BB    POSRES_FC_BB   
  307     1    POSRES_FC_BB    POSRES_FC_BB    POSRES_FC_BB   
  308     1    POSRES_FC_BB    POSRES_FC_BB    POSRES_FC_BB   
  310     1    POSRES_FC_BB    POSRES_FC_BB    POSRES_FC_BB   
  312     1    POSRES_FC_SC    POSRES_FC_SC    POSRES_FC_SC   
  315     1    POSRES_FC_SC    POSRES_FC_SC    POSRES_FC_SC   
  316     1    POSRES_FC_SC    POSRES_FC_SC    POSRES_FC_SC   
  318     1    POSRES_FC_SC    POSRES_FC_SC    POSRES_FC_SC   
  320     1    POSRES_FC_SC    POSRES_FC_SC    POSRES_FC_SC   
  322     1    POSRES_FC_SC    POSRES_FC_SC    POSRES_FC_SC   
  324     1    POSRES_FC_SC    POSRES_FC_SC    POSRES_FC_SC   
  326     1    POSRES_FC_BB    POSRES_FC_BB    POSRES_FC_BB   
  327     1    POSRES_FC_BB    POSRES_FC_BB    POSRES_FC_BB   
  328     1    POSRES_FC_BB    POSRES_FC_BB    POSRES_FC_BB   
  330     1    POSRES_FC_BB    POSRES_FC_BB    POSRES_FC_BB   
  332     1    POSRES_FC_SC    POSRES_FC_SC    POSRES_FC_SC   
  335     1    POSRES_FC_SC    POSRES_FC_SC    POSRES_FC_SC   
  337     1    POSRES_FC_SC    POSRES_FC_SC    POSRES_FC_SC   
  341     1    POSRES_FC_SC    POSRES_FC_SC    POSRES_FC_SC   
  345     1    POSRES_FC_BB    POSRES_FC_BB    POSRES_FC_BB   
  346     1    POSRES_FC_BB    POSRES_FC_BB    POSRES_FC_BB   
  347     1    POSRES_FC_BB    POSRES_FC_BB    POSRES_FC_BB   
  349     1    POSRES_FC_BB    POSRES_FC_BB    POSRES_FC_BB   
  352     1    POSRES_FC_BB    POSRES_FC_BB    POSRES_FC_BB   
  353     1    POSRES_FC_BB    POSRES_FC_BB    POSRES_FC_BB   
  354     1    POSRES_FC_BB    POSRES_FC_BB    POSRES_FC_BB   
  356     1    POSRES_FC_BB    POSRES_FC_BB    POSRES_FC_BB   
  358     1    POSRES_FC_SC    POSRES_FC_SC    POSRES_FC_SC   
  360     1    POSRES_FC_SC    POSRES_FC_SC    POSRES_FC_SC   
  364     1    POSRES_FC_SC    POSRES_FC_SC    POSRES_FC_SC   
  368     1    POSRES_FC_BB    POSRES_FC_BB    POSRES_FC_BB   
  369     1    POSRES_FC_BB    POSRES_FC_BB    POSRES_FC_BB   
  370     1    POSRES_FC_BB    POSRES_FC_BB    POSRES_FC_BB   
  372     1    POSRES_FC_BB    POSRES_FC_BB    POSRES_FC_BB   
  374     1    POSRES_FC_SC    POSRES_FC_SC    POSRES_FC_SC   
  377     1    POSRES_FC_SC    POSRES_FC_SC    POSRES_FC_SC   
  378     1    POSRES_FC_SC    POSRES_FC_SC    POSRES_FC_SC   
  380     1    POSRES_FC_SC    POSRES_FC_SC    POSRES_FC_SC   
  382     1    POSRES_FC_SC    POSRES_FC_SC    POSRES_FC_SC   
  383     1    POSRES_FC_SC    POSRES_FC_SC    POSRES_FC_SC   
  385     1    POSRES_FC_SC    POSRES_FC_SC    POSRES_FC_SC   
  387     1    POSRES_FC_SC    POSRES_FC_SC    POSRES_FC_SC   
  389     1    POSRES_FC_BB    POSRES_FC_BB    POSRES_FC_BB   
  390     1    POSRES_FC_BB    POSRES_FC_BB    POSRES_FC_BB   
  391     1    POSRES_FC_BB    POSRES_FC_BB    POSRES_FC_BB   
  393     1    POSRES_FC_BB    POSRES_FC_BB    POSRES_FC_BB   
  395     1    POSRES_FC_SC    POSRES_FC_SC    POSRES_FC_SC   
  398     1    POSRES_FC_SC    POSRES_FC_SC    POSRES_FC_SC   
  399     1    POSRES_FC_SC    POSRES_FC_SC    POSRES_FC_SC   
  401     1    POSRES_FC_SC    POSRES_FC_SC    POSRES_FC_SC   
  403     1    POSRES_FC_SC    POSRES_FC_SC    POSRES_FC_SC   
  404     1    POSRES_FC_SC    POSRES_FC_SC    POSRES_FC_SC   
  406     1    POSRES_FC_SC    POSRES_FC_SC    POSRES_FC_SC   
  408     1    POSRES_FC_SC    POSRES_FC_SC    POSRES_FC_SC   
  410     1    POSRES_FC_BB    POSRES_FC_BB    POSRES_FC_BB   
  411     1    POSRES_FC_BB    POSRES_FC_BB    POSRES_FC_BB   
  412     1    POSRES_FC_BB    POSRES_FC_BB    POSRES_FC_BB   
  414     1    POSRES_FC_BB    POSRES_FC_BB    POSRES_FC_BB   
  416     1    POSRES_FC_SC    POSRES_FC_SC    POSRES_FC_SC   
  419     1    POSRES_FC_SC    POSRES_FC_SC    POSRES_FC_SC   
  421     1    POSRES_FC_SC    POSRES_FC_SC    POSRES_FC_SC   
  422     1    POSRES_FC_SC    POSRES_FC_SC    POSRES_FC_SC   
  424     1    POSRES_FC_SC    POSRES_FC_SC    POSRES_FC_SC   
  425     1    POSRES_FC_SC    POSRES_FC_SC    POSRES_FC_SC   
  427     1    POSRES_FC_BB    POSRES_FC_BB    POSRES_FC_BB   
  428     1    POSRES_FC_BB    POSRES_FC_BB    POSRES_FC_BB   
  429     1    POSRES_FC_BB    POSRES_FC_BB    POSRES_FC_BB   
  431     1    POSRES_FC_BB    POSRES_FC_BB    POSRES_FC_BB   
  433     1    POSRES_FC_SC    POSRES_FC_SC    POSRES_FC_SC   
  436     1    POSRES_FC_SC    POSRES_FC_SC    POSRES_FC_SC   
  439     1    POSRES_FC_SC    POSRES_FC_SC    POSRES_FC_SC   
  442     1    POSRES_FC_SC    POSRES_FC_SC    POSRES_FC_SC   
  445     1    POSRES_FC_SC    POSRES_FC_SC    POSRES_FC_SC   
  449     1    POSRES_FC_BB    POSRES_FC_BB    POSRES_FC_BB   
  450     1    POSRES_FC_BB    POSRES_FC_BB    POSRES_FC_BB   
  451     1    POSRES_FC_BB    POSRES_FC_BB    POSRES_FC_BB   
  453     1    POSRES_FC_BB    POSRES_FC_BB    POSRES_FC_BB   
  455     1    POSRES_FC_SC    POSRES_FC_SC    POSRES_FC_SC   
  458     1    POSRES_FC_SC    POSRES_FC_SC    POSRES_FC_SC   
  459     1    POSRES_FC_SC    POSRES_FC_SC    POSRES_FC_SC   
  460     1    POSRES_FC_SC    POSRES_FC_SC    POSRES_FC_SC   
  463     1    POSRES_FC_BB    POSRES_FC_BB    POSRES_FC_BB   
  464     1    POSRES_FC_BB    POSRES_FC_BB    POSRES_FC_BB   
  465     1    POSRES_FC_BB    POSRES_FC_BB    POSRES_FC_BB   
  467     1    POSRES_FC_BB    POSRES_FC_BB    POSRES_FC_BB   
  469     1    POSRES_FC_SC    POSRES_FC_SC    POSRES_FC_SC   
  472     1    POSRES_FC_SC    POSRES_FC_SC    POSRES_FC_SC   
  473     1    POSRES_FC_SC    POSRES_FC_SC    POSRES_FC_SC   
  474     1    POSRES_FC_SC    POSRES_FC_SC    POSRES_FC_SC   
  476     1    POSRES_FC_BB    POSRES_FC_BB    POSRES_FC_BB   
  477     1    POSRES_FC_BB    POSRES_FC_BB    POSRES_FC_BB   
  478     1    POSRES_FC_BB    POSRES_FC_BB    POSRES_FC_BB   
  480     1    POSRES_FC_BB    POSRES_FC_BB    POSRES_FC_BB   
  482     1    POSRES_FC_SC    POSRES_FC_SC    POSRES_FC_SC   
  485     1    POSRES_FC_SC    POSRES_FC_SC    POSRES_FC_SC   
  488     1    POSRES_FC_SC    POSRES_FC_SC    POSRES_FC_SC   
  491     1    POSRES_FC_SC    POSRES_FC_SC    POSRES_FC_SC   
  494     1    POSRES_FC_SC    POSRES_FC_SC    POSRES_FC_SC   
  498     1    POSRES_FC_BB    POSRES_FC_BB    POSRES_FC_BB   
  499     1    POSRES_FC_BB    POSRES_FC_BB    POSRES_FC_BB   
  500     1    POSRES_FC_BB    POSRES_FC_BB    POSRES_FC_BB   
  502     1    POSRES_FC_BB    POSRES_FC_BB    POSRES_FC_BB   
  504     1    POSRES_FC_SC    POSRES_FC_SC    POSRES_FC_SC   
  507     1    POSRES_FC_SC    POSRES_FC_SC    POSRES_FC_SC   
  509     1    POSRES_FC_BB    POSRES_FC_BB    POSRES_FC_BB   
  510     1    POSRES_FC_BB    POSRES_FC_BB    POSRES_FC_BB   
  511     1    POSRES_FC_BB    POSRES_FC_BB    POSRES_FC_BB   
  513     1    POSRES_FC_BB    POSRES_FC_BB    POSRES_FC_BB   
  515     1    POSRES_FC_SC    POSRES_FC_SC    POSRES_FC_SC   
  518     1    POSRES_FC_SC    POSRES_FC_SC    POSRES_FC_SC   
  519     1    POSRES_FC_SC    POSRES_FC_SC    POSRES_FC_SC   
  521     1    POSRES_FC_SC    POSRES_FC_SC    POSRES_FC_SC   
  523     1    POSRES_FC_SC    POSRES_FC_SC    POSRES_FC_SC   
  524     1    POSRES_FC_SC    POSRES_FC_SC    POSRES_FC_SC   
  525     1    POSRES_FC_SC    POSRES_FC_SC    POSRES_FC_SC   
  527     1    POSRES_FC_SC    POSRES_FC_SC    POSRES_FC_SC   
  529     1    POSRES_FC_SC    POSRES_FC_SC    POSRES_FC_SC   
  531     1    POSRES_FC_SC    POSRES_FC_SC    POSRES_FC_SC   
  533     1    POSRES_FC_BB    POSRES_FC_BB    POSRES_FC_BB   
  534     1    POSRES_FC_BB    POSRES_FC_BB    POSRES_FC_BB   
  535     1    POSRES_FC_BB    POSRES_FC_BB    POSRES_FC_BB   
  537     1    POSRES_FC_BB    POSRES_FC_BB    POSRES_FC_BB   
  539     1    POSRES_FC_SC    POSRES_FC_SC    POSRES_FC_SC   
  542     1    POSRES_FC_SC    POSRES_FC_SC    POSRES_FC_SC   
  545     1    POSRES_FC_SC    POSRES_FC_SC    POSRES_FC_SC   
  546     1    POSRES_FC_SC    POSRES_FC_SC    POSRES_FC_SC   
  550     1    POSRES_FC_BB    POSRES_FC_BB    POSRES_FC_BB   
  551     1    POSRES_FC_BB    POSRES_FC_BB    POSRES_FC_BB   
  552     1    POSRES_FC_BB    POSRES_FC_BB    POSRES_FC_BB   
  554     1    POSRES_FC_BB    POSRES_FC_BB    POSRES_FC_BB   
  556     1    POSRES_FC_SC    POSRES_FC_SC    POSRES_FC_SC   
  559     1    POSRES_FC_SC    POSRES_FC_SC    POSRES_FC_SC   
  562     1    POSRES_FC_SC    POSRES_FC_SC    POSRES_FC_SC   
  563     1    POSRES_FC_SC    POSRES_FC_SC    POSRES_FC_SC   
  564     1    POSRES_FC_SC    POSRES_FC_SC    POSRES_FC_SC   
  565     1    POSRES_FC_BB    POSRES_FC_BB    POSRES_FC_BB   
  566     1    POSRES_FC_BB    POSRES_FC_BB    POSRES_FC_BB   
  567     1    POSRES_FC_BB    POSRES_FC_BB    POSRES_FC_BB   
  569     1    POSRES_FC_BB    POSRES_FC_BB    POSRES_FC_BB   
  571     1    POSRES_FC_SC    POSRES_FC_SC    POSRES_FC_SC   
  574     1    POSRES_FC_SC    POSRES_FC_SC    POSRES_FC_SC   
  576     1    POSRES_FC_BB    POSRES_FC_BB    POSRES_FC_BB   
  577     1    POSRES_FC_BB    POSRES_FC_BB    POSRES_FC_BB   
  578     1    POSRES_FC_BB    POSRES_FC_BB    POSRES_FC_BB   
  580     1    POSRES_FC_BB    POSRES_FC_BB    POSRES_FC_BB   
  582     1    POSRES_FC_SC    POSRES_FC_SC    POSRES_FC_SC   
  585     1    POSRES_FC_SC    POSRES_FC_SC    POSRES_FC_SC   
  588     1    POSRES_FC_SC    POSRES_FC_SC    POSRES_FC_SC   
  589     1    POSRES_FC_SC    POSRES_FC_SC    POSRES_FC_SC   
  590     1    POSRES_FC_SC    POSRES_FC_SC    POSRES_FC_SC   
  591     1    POSRES_FC_BB    POSRES_FC_BB    POSRES_FC_BB   
  592     1    POSRES_FC_BB    POSRES_FC_BB    POSRES_FC_BB   
  593     1    POSRES_FC_BB    POSRES_FC_BB    POSRES_FC_BB   
  595     1    POSRES_FC_BB    POSRES_FC_BB    POSRES_FC_BB   
  597     1    POSRES_FC_SC    POSRES_FC_SC    POSRES_FC_SC   
  600     1    POSRES_FC_SC    POSRES_FC_SC    POSRES_FC_SC   
  601     1    POSRES_FC_SC    POSRES_FC_SC    POSRES_FC_SC   
  603     1    POSRES_FC_SC    POSRES_FC_SC    POSRES_FC_SC   
  605     1    POSRES_FC_SC    POSRES_FC_SC    POSRES_FC_SC   
  607     1    POSRES_FC_SC    POSRES_FC_SC    POSRES_FC_SC   
  609     1    POSRES_FC_SC    POSRES_FC_SC    POSRES_FC_SC   
  611     1    POSRES_FC_BB    POSRES_FC_BB    POSRES_FC_BB   
  612     1    POSRES_FC_BB    POSRES_FC_BB    POSRES_FC_BB   
  613     1    POSRES_FC_BB    POSRES_FC_BB    POSRES_FC_BB   
  615     1    POSRES_FC_BB    POSRES_FC_BB    POSRES_FC_BB   
  617     1    POSRES_FC_SC    POSRES_FC_SC    POSRES_FC_SC   
  620     1    POSRES_FC_SC    POSRES_FC_SC    POSRES_FC_SC   
  623     1    POSRES_FC_SC    POSRES_FC_SC    POSRES_FC_SC   
  626     1    POSRES_FC_SC    POSRES_FC_SC    POSRES_FC_SC   
  628     1    POSRES_FC_SC    POSRES_FC_SC    POSRES_FC_SC   
  629     1    POSRES_FC_SC    POSRES_FC_SC    POSRES_FC_SC   
  632     1    POSRES_FC_SC    POSRES_FC_SC    POSRES_FC_SC   
  635     1    POSRES_FC_BB    POSRES_FC_BB    POSRES_FC_BB   
  636     1    POSRES_FC_BB    POSRES_FC_BB    POSRES_FC_BB   
  637     1    POSRES_FC_BB    POSRES_FC_BB    POSRES_FC_BB   
  639     1    POSRES_FC_BB    POSRES_FC_BB    POSRES_FC_BB   
  641     1    POSRES_FC_SC    POSRES_FC_SC    POSRES_FC_SC   
  643     1    POSRES_FC_SC    POSRES_FC_SC    POSRES_FC_SC   
  647     1    POSRES_FC_SC    POSRES_FC_SC    POSRES_FC_SC   
  651     1    POSRES_FC_BB    POSRES_FC_BB    POSRES_FC_BB   
  652     1    POSRES_FC_BB    POSRES_FC_BB    POSRES_FC_BB   
  653     1    POSRES_FC_BB    POSRES_FC_BB    POSRES_FC_BB   
  655     1    POSRES_FC_BB    POSRES_FC_BB    POSRES_FC_BB   
  657     1    POSRES_FC_SC    POSRES_FC_SC    POSRES_FC_SC   
  660     1    POSRES_FC_SC    POSRES_FC_SC    POSRES_FC_SC   
  661     1    POSRES_FC_SC    POSRES_FC_SC    POSRES_FC_SC   
  663     1    POSRES_FC_SC    POSRES_FC_SC    POSRES_FC_SC   
  665     1    POSRES_FC_SC    POSRES_FC_SC    POSRES_FC_SC   
  666     1    POSRES_FC_SC    POSRES_FC_SC    POSRES_FC_SC   
  668     1    POSRES_FC_SC    POSRES_FC_SC    POSRES_FC_SC   
  670     1    POSRES_FC_SC    POSRES_FC_SC    POSRES_FC_SC   
  672     1    POSRES_FC_BB    POSRES_FC_BB    POSRES_FC_BB   
  673     1    POSRES_FC_SC    POSRES_FC_SC    POSRES_FC_SC   
  674     1    POSRES_FC_SC    POSRES_FC_SC    POSRES_FC_SC   
  675     1    POSRES_FC_BB    POSRES_FC_BB    POSRES_FC_BB   
  677     1    POSRES_FC_BB    POSRES_FC_BB    POSRES_FC_BB   
  679     1    POSRES_FC_BB    POSRES_FC_BB    POSRES_FC_BB   
  680     1    POSRES_FC_BB    POSRES_FC_BB    POSRES_FC_BB   
  682     1    POSRES_FC_SC    POSRES_FC_SC    POSRES_FC_SC   
  684     1    POSRES_FC_SC    POSRES_FC_SC    POSRES_FC_SC   
  685     1    POSRES_FC_SC    POSRES_FC_SC    POSRES_FC_SC   
  686     1    POSRES_FC_SC    POSRES_FC_SC    POSRES_FC_SC   
  690     1    POSRES_FC_BB    POSRES_FC_BB    POSRES_FC_BB   
  692     1    POSRES_FC_SC    POSRES_FC_SC    POSRES_FC_SC   
  694     1    POSRES_FC_BB    POSRES_FC_BB    POSRES_FC_BB   
  696     1    POSRES_FC_SC    POSRES_FC_SC    POSRES_FC_SC   
  697     1    POSRES_FC_SC    POSRES_FC_SC    POSRES_FC_SC   
  700     1    POSRES_FC_SC    POSRES_FC_SC    POSRES_FC_SC   
  701     1    POSRES_FC_BB    POSRES_FC_BB    POSRES_FC_BB   
  703     1    POSRES_FC_BB    POSRES_FC_BB    POSRES_FC_BB   
  705     1    POSRES_FC_BB    POSRES_FC_BB    POSRES_FC_BB   
  706     1    POSRES_FC_BB    POSRES_FC_BB    POSRES_FC_BB   
  708     1    POSRES_FC_SC    POSRES_FC_SC    POSRES_FC_SC   
  710     1    POSRES_FC_BB    POSRES_FC_BB    POSRES_FC_BB   
  712     1    POSRES_FC_SC    POSRES_FC_SC    POSRES_FC_SC   
  714     1    POSRES_FC_BB    POSRES_FC_BB    POSRES_FC_BB   
  716     1    POSRES_FC_SC    POSRES_FC_SC    POSRES_FC_SC   
  718     1    POSRES_FC_SC    POSRES_FC_SC    POSRES_FC_SC   
  722     1    POSRES_FC_BB    POSRES_FC_BB    POSRES_FC_BB   
  724     1    POSRES_FC_BB    POSRES_FC_BB    POSRES_FC_BB   
  726     1    POSRES_FC_BB    POSRES_FC_BB    POSRES_FC_BB   
  727     1    POSRES_FC_BB    POSRES_FC_BB    POSRES_FC_BB   
  729     1    POSRES_FC_SC    POSRES_FC_SC    POSRES_FC_SC   
  731     1    POSRES_FC_SC    POSRES_FC_SC    POSRES_FC_SC   
  732     1    POSRES_FC_SC    POSRES_FC_SC    POSRES_FC_SC   
  733     1    POSRES_FC_SC    POSRES_FC_SC    POSRES_FC_SC   
  737     1    POSRES_FC_BB    POSRES_FC_BB    POSRES_FC_BB   
  739     1    POSRES_FC_SC    POSRES_FC_SC    POSRES_FC_SC   
  741     1    POSRES_FC_BB    POSRES_FC_BB    POSRES_FC_BB   
  743     1    POSRES_FC_SC    POSRES_FC_SC    POSRES_FC_SC   
  744     1    POSRES_FC_SC    POSRES_FC_SC    POSRES_FC_SC   
  747     1    POSRES_FC_SC    POSRES_FC_SC    POSRES_FC_SC   
  749     1    POSRES_FC_BB    POSRES_FC_BB    POSRES_FC_BB   
  751     1    POSRES_FC_BB    POSRES_FC_BB    POSRES_FC_BB   
  753     1    POSRES_FC_BB    POSRES_FC_BB    POSRES_FC_BB   
  754     1    POSRES_FC_BB    POSRES_FC_BB    POSRES_FC_BB   
  756     1    POSRES_FC_SC    POSRES_FC_SC    POSRES_FC_SC   
  758     1    POSRES_FC_BB    POSRES_FC_BB    POSRES_FC_BB   
  760     1    POSRES_FC_SC    POSRES_FC_SC    POSRES_FC_SC   
  761     1    POSRES_FC_BB    POSRES_FC_BB    POSRES_FC_BB   
  763     1    POSRES_FC_SC    POSRES_FC_SC    POSRES_FC_SC   
  765     1    POSRES_FC_SC    POSRES_FC_SC    POSRES_FC_SC   
  768     1    POSRES_FC_SC    POSRES_FC_SC    POSRES_FC_SC   
  769     1    POSRES_FC_BB    POSRES_FC_BB    POSRES_FC_BB   
  771     1    POSRES_FC_BB    POSRES_FC_BB    POSRES_FC_BB   
  773     1    POSRES_FC_BB    POSRES_FC_BB    POSRES_FC_BB   
  774     1    POSRES_FC_BB    POSRES_FC_BB    POSRES_FC_BB   
  776     1    POSRES_FC_SC    POSRES_FC_SC    POSRES_FC_SC   
  777     1    POSRES_FC_BB    POSRES_FC_BB    POSRES_FC_BB   
  779     1    POSRES_FC_SC    POSRES_FC_SC    POSRES_FC_SC   
  781     1    POSRES_FC_BB    POSRES_FC_BB    POSRES_FC_BB   
  783     1    POSRES_FC_SC    POSRES_FC_SC    POSRES_FC_SC   
  785     1    POSRES_FC_SC    POSRES_FC_SC    POSRES_FC_SC   
  788     1    POSRES_FC_SC    POSRES_FC_SC    POSRES_FC_SC   
  790     1    POSRES_FC_BB    POSRES_FC_BB    POSRES_FC_BB   
  792     1    POSRES_FC_BB    POSRES_FC_BB    POSRES_FC_BB   
  794     1    POSRES_FC_BB    POSRES_FC_BB    POSRES_FC_BB   
  795     1    POSRES_FC_BB    POSRES_FC_BB    POSRES_FC_BB   
  797     1    POSRES_FC_SC    POSRES_FC_SC    POSRES_FC_SC   
  799     1    POSRES_FC_SC    POSRES_FC_SC    POSRES_FC_SC   
  800     1    POSRES_FC_SC    POSRES_FC_SC    POSRES_FC_SC   
  801     1    POSRES_FC_SC    POSRES_FC_SC    POSRES_FC_SC   
  805     1    POSRES_FC_BB    POSRES_FC_BB    POSRES_FC_BB   
  807     1    POSRES_FC_SC    POSRES_FC_SC    POSRES_FC_SC   
  809     1    POSRES_FC_BB    POSRES_FC_BB    POSRES_FC_BB   
  811     1    POSRES_FC_SC    POSRES_FC_SC    POSRES_FC_SC   
  813     1    POSRES_FC_SC    POSRES_FC_SC    POSRES_FC_SC   
  816     1    POSRES_FC_SC    POSRES_FC_SC    POSRES_FC_SC   
  818     1    POSRES_FC_BB    POSRES_FC_BB    POSRES_FC_BB   
  820     1    POSRES_FC_BB    POSRES_FC_BB    POSRES_FC_BB   
  822     1    POSRES_FC_BB    POSRES_FC_BB    POSRES_FC_BB   
  823     1    POSRES_FC_BB    POSRES_FC_BB    POSRES_FC_BB   
  825     1    POSRES_FC_SC    POSRES_FC_SC    POSRES_FC_SC   
  826     1    POSRES_FC_BB    POSRES_FC_BB    POSRES_FC_BB   
  828     1    POSRES_FC_SC    POSRES_FC_SC    POSRES_FC_SC   
  830     1    POSRES_FC_BB    POSRES_FC_BB    POSRES_FC_BB   
  832     1    POSRES_FC_SC    POSRES_FC_SC    POSRES_FC_SC   
  834     1    POSRES_FC_SC    POSRES_FC_SC    POSRES_FC_SC   
  837     1    POSRES_FC_SC    POSRES_FC_SC    POSRES_FC_SC   
  839     1    POSRES_FC_BB    POSRES_FC_BB    POSRES_FC_BB   
  841     1    POSRES_FC_BB    POSRES_FC_BB    POSRES_FC_BB   
  843     1    POSRES_FC_BB    POSRES_FC_BB    POSRES_FC_BB   
  844     1    POSRES_FC_BB    POSRES_FC_BB    POSRES_FC_BB   
  846     1    POSRES_FC_SC    POSRES_FC_SC    POSRES_FC_SC   
  848     1    POSRES_FC_SC    POSRES_FC_SC    POSRES_FC_SC   
  849     1    POSRES_FC_SC    POSRES_FC_SC    POSRES_FC_SC   
  850     1    POSRES_FC_SC    POSRES_FC_SC    POSRES_FC_SC   
  854     1    POSRES_FC_BB    POSRES_FC_BB    POSRES_FC_BB   
  856     1    POSRES_FC_SC    POSRES_FC_SC    POSRES_FC_SC   
  858     1    POSRES_FC_BB    POSRES_FC_BB    POSRES_FC_BB   
  860     1    POSRES_FC_SC    POSRES_FC_SC    POSRES_FC_SC   
  862     1    POSRES_FC_SC    POSRES_FC_SC    POSRES_FC_SC   
  865     1    POSRES_FC_SC    POSRES_FC_SC    POSRES_FC_SC   
#endif

#ifdef DIHRES
[ dihedral_restraints ]
  675   679   677   694     1     60.0      2.5       DIHRES_FC
  679   677   694   690     1    -60.0      2.5       DIHRES_FC
  677   694   690   680     1     60.0      2.5       DIHRES_FC
  694   690   680   675     1    -60.0      2.5       DIHRES_FC
  690   680   675   679     1     60.0      2.5       DIHRES_FC
  680   675   679   677     1    -60.0      2.5       DIHRES_FC
  701   705   703   714     1    -60.0      2.5       DIHRES_FC
  705   703   714   710     1     60.0      2.5       DIHRES_FC
  703   714   710   706     1    -60.0      2.5       DIHRES_FC
  714   710   706   701     1     60.0      2.5       DIHRES_FC
  710   706   701   705     1    -60.0      2.5       DIHRES_FC
  706   701   705   703     1     60.0      2.5       DIHRES_FC
  722   726   724   741     1     60.0      2.5       DIHRES_FC
  726   724   741   737     1    -60.0      2.5       DIHRES_FC
  724   741   737   727     1     60.0      2.5       DIHRES_FC
  741   737   727   722     1    -60.0      2.5       DIHRES_FC
  737   727   722   726     1     60.0      2.5       DIHRES_FC
  727   722   726   724     1    -60.0      2.5       DIHRES_FC
  749   753   751   761     1     60.0      2.5       DIHRES_FC
  753   751   761   758     1    -60.0      2.5       DIHRES_FC
  751   761   758   754     1     60.0      2.5       DIHRES_FC
  761   758   754   749     1    -60.0      2.5       DIHRES_FC
  758   754   749   753     1     60.0      2.5       DIHRES_FC
  754   749   753   751     1    -60.0      2.5       DIHRES_FC
  769   773   771   781     1     60.0      2.5       DIHRES_FC
  773   771   781   777     1    -60.0      2.5       DIHRES_FC
  771   781   777   774     1     60.0      2.5       DIHRES_FC
  781   777   774   769     1    -60.0      2.5       DIHRES_FC
  777   774   769   773     1     60.0      2.5       DIHRES_FC
  774   769   773   771     1    -60.0      2.5       DIHRES_FC
  790   794   792   809     1     60.0      2.5       DIHRES_FC
  794   792   809   805     1    -60.0      2.5       DIHRES_FC
  792   809   805   795     1     60.0      2.5       DIHRES_FC
  809   805   795   790     1    -60.0      2.5       DIHRES_FC
  805   795   790   794     1     60.0      2.5       DIHRES_FC
  795   790   794   792     1    -60.0      2.5       DIHRES_FC
  818   822   820   830     1     60.0      2.5       DIHRES_FC
  822   820   830   826     1    -60.0      2.5       DIHRES_FC
  820   830   826   823     1     60.0      2.5       DIHRES_FC
  830   826   823   818     1    -60.0      2.5       DIHRES_FC
  826   823   818   822     1     60.0      2.5       DIHRES_FC
  823   818   822   820     1    -60.0      2.5       DIHRES_FC
  839   843   841   858     1     60.0      2.5       DIHRES_FC
  843   841   858   854     1    -60.0      2.5       DIHRES_FC
  841   858   854   844     1     60.0      2.5       DIHRES_FC
  858   854   844   839     1    -60.0      2.5       DIHRES_FC
  854   844   839   843     1     60.0      2.5       DIHRES_FC
  844   839   843   841     1    -60.0      2.5       DIHRES_FC
#endif
